
     Program PWSCF v.6.7MaX starts on 23May2022 at 17:16:28 

     This program is part of the open-source Quantum ESPRESSO suite
     for quantum simulation of materials; please cite
         "P. Giannozzi et al., J. Phys.:Condens. Matter 21 395502 (2009);
         "P. Giannozzi et al., J. Phys.:Condens. Matter 29 465901 (2017);
          URL http://www.quantum-espresso.org", 
     in publications or presentations arising from this work. More details at
     http://www.quantum-espresso.org/quote

     Parallel version (MPI), running on     1 processors

     MPI processes distributed on     1 nodes
     Waiting for input...
     Reading input from standard input

     Current dimensions of program PWSCF are:
     Max number of different atomic species (ntypx) = 10
     Max number of k-points (npk) =  40000
     Max angular momentum in pseudopotentials (lmaxx) =  3

     Subspace diagonalization in iterative solution of the eigenvalue problem:
     a serial algorithm will be used


     G-vector sticks info
     --------------------
     sticks:   dense  smooth     PW     G-vecs:    dense   smooth      PW
     Sum         547     265     85                34301    12031    2173



     bravais-lattice index     =            4
     lattice parameter (alat)  =       4.6676  a.u.
     unit-cell volume          =     297.0066 (a.u.)^3
     number of atoms/cell      =            4
     number of atomic types    =            1
     number of electrons       =        16.00
     number of Kohn-Sham states=           12
     kinetic-energy cutoff     =      45.0000  Ry
     charge density cutoff     =     360.0000  Ry
     scf convergence threshold =      1.0E-09
     mixing beta               =       0.7000
     number of iterations used =            8  plain     mixing
     Exchange-correlation= PBE
                           (   1   4   3   4   0   0   0)

     celldm(1)=   4.667624  celldm(2)=   1.000000  celldm(3)=   3.372470
     celldm(4)=   0.000000  celldm(5)=   0.000000  celldm(6)=   0.000000

     crystal axes: (cart. coord. in units of alat)
               a(1) = (   1.000000   0.000000   0.000000 )  
               a(2) = (  -0.500000   0.866025   0.000000 )  
               a(3) = (   0.000000   0.000000   3.372470 )  

     reciprocal axes: (cart. coord. in units 2 pi/alat)
               b(1) = (  1.000000  0.577350 -0.000000 )  
               b(2) = (  0.000000  1.154701  0.000000 )  
               b(3) = (  0.000000 -0.000000  0.296519 )  


     PseudoPot. # 1 for C  read from file:
     /home/max/Desktop/graphite_DFT/Pseudo/C.pbe-n-rrkjus_psl.1.0.0.UPF
     MD5 check sum: 1fdd950c42eb37d8afe3dd2f8d12311e
     Pseudo is Ultrasoft + core correction, Zval =  4.0
     Generated using &quot;atomic&quot; code by A. Dal Corso  v.6.3MaX
     Using radial grid of 1073 points,  4 beta functions with: 
                l(1) =   0
                l(2) =   0
                l(3) =   1
                l(4) =   1
     Q(r) pseudized with 0 coefficients 


     atomic species   valence    mass     pseudopotential
        C              4.00    12.01100     C ( 1.00)

      8 Sym. Ops., with inversion, found ( 4 have fractional translation)


                                    s                        frac. trans.

      isym =  1     identity                                     

 cryst.   s( 1) = (     1          0          0      )
                  (     0          1          0      )
                  (     0          0          1      )

 cart.    s( 1) = (  1.0000000  0.0000000  0.0000000 )
                  (  0.0000000  1.0000000  0.0000000 )
                  (  0.0000000  0.0000000  1.0000000 )


      isym =  2     180 deg rotation - cart. axis [0,0,1]        

 cryst.   s( 2) = (    -1          0          0      )    f =(  0.0000000 )
                  (     0         -1          0      )       (  0.0000000 )
                  (     0          0          1      )       ( -0.5000000 )

 cart.    s( 2) = ( -1.0000000  0.0000000  0.0000000 )    f =(  0.0000000 )
                  (  0.0000000 -1.0000000  0.0000000 )       (  0.0000000 )
                  (  0.0000000  0.0000000  1.0000000 )       ( -1.6862348 )


      isym =  3     180 deg rotation - cart. axis [0,1,0]        

 cryst.   s( 3) = (    -1          0          0      )    f =(  0.0000000 )
                  (     1          1          0      )       (  0.0000000 )
                  (     0          0         -1      )       (  0.5000000 )

 cart.    s( 3) = ( -1.0000000  0.0000000  0.0000000 )    f =(  0.0000000 )
                  (  0.0000000  1.0000000  0.0000000 )       (  0.0000000 )
                  (  0.0000000  0.0000000 -1.0000000 )       (  1.6862348 )


      isym =  4     180 deg rotation - cart. axis [1,0,0]        

 cryst.   s( 4) = (     1          0          0      )
                  (    -1         -1          0      )
                  (     0          0         -1      )

 cart.    s( 4) = (  1.0000000  0.0000000  0.0000000 )
                  (  0.0000000 -1.0000000  0.0000000 )
                  (  0.0000000  0.0000000 -1.0000000 )


      isym =  5     inversion                                    

 cryst.   s( 5) = (    -1          0          0      )
                  (     0         -1          0      )
                  (     0          0         -1      )

 cart.    s( 5) = ( -1.0000000  0.0000000  0.0000000 )
                  (  0.0000000 -1.0000000  0.0000000 )
                  (  0.0000000  0.0000000 -1.0000000 )


      isym =  6     inv. 180 deg rotation - cart. axis [0,0,1]   

 cryst.   s( 6) = (     1          0          0      )    f =(  0.0000000 )
                  (     0          1          0      )       (  0.0000000 )
                  (     0          0         -1      )       (  0.5000000 )

 cart.    s( 6) = (  1.0000000  0.0000000  0.0000000 )    f =(  0.0000000 )
                  (  0.0000000  1.0000000  0.0000000 )       (  0.0000000 )
                  (  0.0000000  0.0000000 -1.0000000 )       (  1.6862348 )


      isym =  7     inv. 180 deg rotation - cart. axis [0,1,0]   

 cryst.   s( 7) = (     1          0          0      )    f =(  0.0000000 )
                  (    -1         -1          0      )       (  0.0000000 )
                  (     0          0          1      )       ( -0.5000000 )

 cart.    s( 7) = (  1.0000000  0.0000000  0.0000000 )    f =(  0.0000000 )
                  (  0.0000000 -1.0000000  0.0000000 )       (  0.0000000 )
                  (  0.0000000  0.0000000  1.0000000 )       ( -1.6862348 )


      isym =  8     inv. 180 deg rotation - cart. axis [1,0,0]   

 cryst.   s( 8) = (    -1          0          0      )
                  (     1          1          0      )
                  (     0          0          1      )

 cart.    s( 8) = ( -1.0000000  0.0000000  0.0000000 )
                  (  0.0000000  1.0000000  0.0000000 )
                  (  0.0000000  0.0000000  1.0000000 )


     point group D_2h (mmm) 
     there are  8 classes
     the character table:

       E     C2    C2'   C2''  i     s_v   s_v'  s_v''
A_g    1.00  1.00  1.00  1.00  1.00  1.00  1.00  1.00
B_1g   1.00  1.00 -1.00 -1.00  1.00  1.00 -1.00 -1.00
B_2g   1.00 -1.00  1.00 -1.00  1.00 -1.00  1.00 -1.00
B_3g   1.00 -1.00 -1.00  1.00  1.00 -1.00 -1.00  1.00
A_u    1.00  1.00  1.00  1.00 -1.00 -1.00 -1.00 -1.00
B_1u   1.00  1.00 -1.00 -1.00 -1.00 -1.00  1.00  1.00
B_2u   1.00 -1.00  1.00 -1.00 -1.00  1.00 -1.00  1.00
B_3u   1.00 -1.00 -1.00  1.00 -1.00  1.00  1.00 -1.00

     the symmetry operations in each class and the name of the first element:

     E        1
          identity                                               
     C2       2
          180 deg rotation - cart. axis [0,0,1]                  
     C2'      4
          180 deg rotation - cart. axis [1,0,0]                  
     C2''     3
          180 deg rotation - cart. axis [0,1,0]                  
     i        5
          inversion                                              
     s_v      6
          inv. 180 deg rotation - cart. axis [0,0,1]             
     s_v'     8
          inv. 180 deg rotation - cart. axis [1,0,0]             
     s_v''    7
          inv. 180 deg rotation - cart. axis [0,1,0]             

   Cartesian axes

     site n.     atom                  positions (alat units)
         1           C   tau(   1) = (   0.0000000   0.0000000   0.8431174  )
         2           C   tau(   2) = (   0.0000000   0.0000000   2.5293522  )
         3           C   tau(   3) = (   0.0000000   0.5772925   0.8431174  )
         4           C   tau(   4) = (   0.5000000   0.2887329   2.5293522  )

   Crystallographic axes

     site n.     atom                  positions (cryst. coord.)
         1           C   tau(   1) = (  0.0000000  0.0000000  0.2500000  )
         2           C   tau(   2) = (  0.0000000  0.0000000  0.7500000  )
         3           C   tau(   3) = (  0.3333000  0.6666000  0.2500000  )
         4           C   tau(   4) = (  0.6667000  0.3334000  0.7500000  )

     number of k points=    42  Methfessel-Paxton smearing, width (Ry)=  0.0300
                       cart. coord. in units 2pi/alat
        k(    1) = (   0.0000000   0.0000000   0.0000000), wk =   0.0156250
        k(    2) = (   0.0000000   0.0000000  -0.1482593), wk =   0.0156250
        k(    3) = (   0.0000000   0.1443376   0.0000000), wk =   0.0312500
        k(    4) = (   0.0000000   0.1443376  -0.1482593), wk =   0.0312500
        k(    5) = (   0.0000000   0.2886751   0.0000000), wk =   0.0312500
        k(    6) = (   0.0000000   0.2886751  -0.1482593), wk =   0.0312500
        k(    7) = (   0.0000000   0.4330127   0.0000000), wk =   0.0312500
        k(    8) = (   0.0000000   0.4330127  -0.1482593), wk =   0.0312500
        k(    9) = (   0.0000000  -0.5773503   0.0000000), wk =   0.0156250
        k(   10) = (   0.0000000  -0.5773503  -0.1482593), wk =   0.0156250
        k(   11) = (   0.1250000   0.2165064   0.0000000), wk =   0.0625000
        k(   12) = (   0.1250000   0.2165064  -0.1482593), wk =   0.0625000
        k(   13) = (   0.1250000   0.3608439   0.0000000), wk =   0.0625000
        k(   14) = (   0.1250000   0.3608439  -0.1482593), wk =   0.0625000
        k(   15) = (   0.1250000   0.5051815   0.0000000), wk =   0.0625000
        k(   16) = (   0.1250000   0.5051815  -0.1482593), wk =   0.0625000
        k(   17) = (   0.2500000   0.4330127   0.0000000), wk =   0.0625000
        k(   18) = (   0.2500000   0.4330127  -0.1482593), wk =   0.0625000
        k(   19) = (   0.2500000   0.5773503   0.0000000), wk =   0.0312500
        k(   20) = (   0.2500000   0.5773503  -0.1482593), wk =   0.0312500
        k(   21) = (  -0.1250000  -0.0721688   0.0000000), wk =   0.0625000
        k(   22) = (  -0.1250000  -0.0721688   0.1482593), wk =   0.0625000
        k(   23) = (  -0.2500000  -0.1443376   0.0000000), wk =   0.0625000
        k(   24) = (  -0.2500000  -0.1443376   0.1482593), wk =   0.0625000
        k(   25) = (  -0.3750000  -0.2165064   0.0000000), wk =   0.0625000
        k(   26) = (  -0.3750000  -0.2165064   0.1482593), wk =   0.0625000
        k(   27) = (   0.5000000   0.2886751   0.0000000), wk =   0.0312500
        k(   28) = (   0.5000000   0.2886751   0.1482593), wk =   0.0312500
        k(   29) = (   0.2500000  -0.0000000   0.0000000), wk =   0.0312500
        k(   30) = (   0.2500000  -0.0000000   0.1482593), wk =   0.0312500
        k(   31) = (  -0.2500000  -0.2886751   0.0000000), wk =   0.0625000
        k(   32) = (   0.3750000  -0.0721688   0.0000000), wk =   0.0625000
        k(   33) = (  -0.2500000  -0.2886751   0.1482593), wk =   0.0625000
        k(   34) = (   0.3750000  -0.0721688   0.1482593), wk =   0.0625000
        k(   35) = (  -0.3750000  -0.3608439   0.0000000), wk =   0.0625000
        k(   36) = (   0.5000000  -0.1443376   0.0000000), wk =   0.0625000
        k(   37) = (  -0.3750000  -0.3608439   0.1482593), wk =   0.0625000
        k(   38) = (   0.5000000  -0.1443376   0.1482593), wk =   0.0625000
        k(   39) = (   0.5000000  -0.0000000   0.0000000), wk =   0.0312500
        k(   40) = (   0.5000000  -0.0000000   0.1482593), wk =   0.0312500
        k(   41) = (  -0.3750000  -0.5051815   0.0000000), wk =   0.0625000
        k(   42) = (  -0.3750000  -0.5051815   0.1482593), wk =   0.0625000

                       cryst. coord.
        k(    1) = (   0.0000000   0.0000000   0.0000000), wk =   0.0156250
        k(    2) = (   0.0000000   0.0000000  -0.5000000), wk =   0.0156250
        k(    3) = (   0.0000000   0.1250000   0.0000000), wk =   0.0312500
        k(    4) = (   0.0000000   0.1250000  -0.5000000), wk =   0.0312500
        k(    5) = (   0.0000000   0.2500000   0.0000000), wk =   0.0312500
        k(    6) = (   0.0000000   0.2500000  -0.5000000), wk =   0.0312500
        k(    7) = (   0.0000000   0.3750000   0.0000000), wk =   0.0312500
        k(    8) = (   0.0000000   0.3750000  -0.5000000), wk =   0.0312500
        k(    9) = (   0.0000000  -0.5000000   0.0000000), wk =   0.0156250
        k(   10) = (   0.0000000  -0.5000000  -0.5000000), wk =   0.0156250
        k(   11) = (   0.1250000   0.1250000   0.0000000), wk =   0.0625000
        k(   12) = (   0.1250000   0.1250000  -0.5000000), wk =   0.0625000
        k(   13) = (   0.1250000   0.2500000   0.0000000), wk =   0.0625000
        k(   14) = (   0.1250000   0.2500000  -0.5000000), wk =   0.0625000
        k(   15) = (   0.1250000   0.3750000   0.0000000), wk =   0.0625000
        k(   16) = (   0.1250000   0.3750000  -0.5000000), wk =   0.0625000
        k(   17) = (   0.2500000   0.2500000   0.0000000), wk =   0.0625000
        k(   18) = (   0.2500000   0.2500000  -0.5000000), wk =   0.0625000
        k(   19) = (   0.2500000   0.3750000   0.0000000), wk =   0.0312500
        k(   20) = (   0.2500000   0.3750000  -0.5000000), wk =   0.0312500
        k(   21) = (  -0.1250000   0.0000000   0.0000000), wk =   0.0625000
        k(   22) = (  -0.1250000   0.0000000   0.5000000), wk =   0.0625000
        k(   23) = (  -0.2500000   0.0000000   0.0000000), wk =   0.0625000
        k(   24) = (  -0.2500000   0.0000000   0.5000000), wk =   0.0625000
        k(   25) = (  -0.3750000  -0.0000000   0.0000000), wk =   0.0625000
        k(   26) = (  -0.3750000  -0.0000000   0.5000000), wk =   0.0625000
        k(   27) = (   0.5000000   0.0000000   0.0000000), wk =   0.0312500
        k(   28) = (   0.5000000   0.0000000   0.5000000), wk =   0.0312500
        k(   29) = (   0.2500000  -0.1250000   0.0000000), wk =   0.0312500
        k(   30) = (   0.2500000  -0.1250000   0.5000000), wk =   0.0312500
        k(   31) = (  -0.2500000  -0.1250000   0.0000000), wk =   0.0625000
        k(   32) = (   0.3750000  -0.2500000   0.0000000), wk =   0.0625000
        k(   33) = (  -0.2500000  -0.1250000   0.5000000), wk =   0.0625000
        k(   34) = (   0.3750000  -0.2500000   0.5000000), wk =   0.0625000
        k(   35) = (  -0.3750000  -0.1250000   0.0000000), wk =   0.0625000
        k(   36) = (   0.5000000  -0.3750000   0.0000000), wk =   0.0625000
        k(   37) = (  -0.3750000  -0.1250000   0.5000000), wk =   0.0625000
        k(   38) = (   0.5000000  -0.3750000   0.5000000), wk =   0.0625000
        k(   39) = (   0.5000000  -0.2500000   0.0000000), wk =   0.0312500
        k(   40) = (   0.5000000  -0.2500000   0.5000000), wk =   0.0312500
        k(   41) = (  -0.3750000  -0.2500000   0.0000000), wk =   0.0625000
        k(   42) = (  -0.3750000  -0.2500000   0.5000000), wk =   0.0625000

     Dense  grid:    34301 G-vectors     FFT dimensions: (  30,  30,  96)

     Smooth grid:    12031 G-vectors     FFT dimensions: (  20,  20,  72)

     Dynamical RAM for                 wfc:       0.28 MB

     Dynamical RAM for     wfc (w. buffer):      11.92 MB

     Dynamical RAM for           str. fact:       0.52 MB

     Dynamical RAM for           local pot:       0.00 MB

     Dynamical RAM for          nlocal pot:       0.74 MB

     Dynamical RAM for                qrad:       0.44 MB

     Dynamical RAM for          rho,v,vnew:       3.55 MB

     Dynamical RAM for               rhoin:       1.18 MB

     Dynamical RAM for            rho*nmix:       8.37 MB

     Dynamical RAM for           G-vectors:       2.05 MB

     Dynamical RAM for          h,s,v(r/c):       0.03 MB

     Dynamical RAM for          <psi|beta>:       0.01 MB

     Dynamical RAM for                 psi:       0.55 MB

     Dynamical RAM for                hpsi:       0.55 MB

     Dynamical RAM for                spsi:       0.55 MB

     Dynamical RAM for      wfcinit/wfcrot:       0.75 MB

     Dynamical RAM for           addusdens:      24.60 MB

     Dynamical RAM for          addusforce:      28.00 MB

     Dynamical RAM for         addusstress:      26.17 MB

     Estimated static dynamical RAM per process >      33.12 MB

     Estimated max dynamical RAM per process >      61.12 MB

     Check: negative core charge=   -0.000010

     Initial potential from superposition of free atoms

     starting charge   15.99983, renormalised to   16.00000
     Starting wfcs are   16 randomized atomic wfcs

     total cpu time spent up to now is        2.3 secs

     Self-consistent Calculation

     iteration #  1     ecut=    45.00 Ry     beta= 0.70
     Davidson diagonalization with overlap
     ethr =  1.00E-02,  avg # of iterations =  2.6

     total cpu time spent up to now is        5.5 secs

     total energy              =     -49.66243006 Ry
     estimated scf accuracy    <       0.37744080 Ry

     iteration #  2     ecut=    45.00 Ry     beta= 0.70
     Davidson diagonalization with overlap
     ethr =  2.36E-03,  avg # of iterations =  2.4

     total cpu time spent up to now is        7.8 secs

     total energy              =     -49.71369320 Ry
     estimated scf accuracy    <       0.00440023 Ry

     iteration #  3     ecut=    45.00 Ry     beta= 0.70
     Davidson diagonalization with overlap
     c_bands:  1 eigenvalues not converged
     c_bands:  1 eigenvalues not converged
     ethr =  2.75E-05,  avg # of iterations =  6.8

     total cpu time spent up to now is       10.8 secs

     total energy              =     -49.71406461 Ry
     estimated scf accuracy    <       0.00031343 Ry

     iteration #  4     ecut=    45.00 Ry     beta= 0.70
     Davidson diagonalization with overlap
     ethr =  1.96E-06,  avg # of iterations =  3.6

     total cpu time spent up to now is       13.1 secs

     total energy              =     -49.71408327 Ry
     estimated scf accuracy    <       0.00000191 Ry

     iteration #  5     ecut=    45.00 Ry     beta= 0.70
     Davidson diagonalization with overlap
     ethr =  1.19E-08,  avg # of iterations =  3.0

     total cpu time spent up to now is       16.3 secs

     total energy              =     -49.71408446 Ry
     estimated scf accuracy    <       0.00000005 Ry

     iteration #  6     ecut=    45.00 Ry     beta= 0.70
     Davidson diagonalization with overlap
     ethr =  3.39E-10,  avg # of iterations =  2.2

     total cpu time spent up to now is       18.8 secs

     End of self-consistent calculation

          k = 0.0000 0.0000 0.0000 (  1497 PWs)   bands (ev):

   -14.6996 -14.6543  -3.0617  -2.4976   1.7295   1.7310   1.7338   1.7353
     7.9711  13.0937  13.0995  13.1004

     occupation numbers 
     1.0000   1.0000   1.0000   1.0000   1.0000   1.0000   1.0000   1.0000
    -0.0000  -0.0000  -0.0000  -0.0000

          k = 0.0000 0.0000-0.1483 (  1450 PWs)   bands (ev):

   -14.6769 -14.6769  -2.7930  -2.7930   1.7303   1.7303   1.7346   1.7346
     9.3281   9.3281  13.0970  13.0973

     occupation numbers 
     1.0000   1.0000   1.0000   1.0000   1.0000   1.0000   1.0000   1.0000
    -0.0000  -0.0000  -0.0000  -0.0000

          k = 0.0000 0.1443 0.0000 (  1495 PWs)   bands (ev):

   -14.3320 -14.2881  -2.6185  -2.0654   0.3517   0.3564   1.0333   1.0365
     8.4494  11.9257  13.1462  13.1872

     occupation numbers 
     1.0000   1.0000   1.0000   1.0000   1.0000   1.0000   1.0000   1.0000
    -0.0000  -0.0000  -0.0000  -0.0000

          k = 0.0000 0.1443-0.1483 (  1496 PWs)   bands (ev):

   -14.3102 -14.3102  -2.3549  -2.3549   0.3541   0.3541   1.0349   1.0349
     9.7898   9.7898  13.1779  13.1779

     occupation numbers 
     1.0000   1.0000   1.0000   1.0000   1.0000   1.0000   1.0000   1.0000
    -0.0000  -0.0000  -0.0000  -0.0000

          k = 0.0000 0.2887 0.0000 (  1497 PWs)   bands (ev):

   -13.2390 -13.1988  -2.6455  -2.6340  -1.3174  -0.8012  -0.2704  -0.2660
     9.8819  11.9190  12.0383  12.7866

     occupation numbers 
     1.0000   1.0000   1.0000   1.0000   1.0000   1.0000   1.0000   1.0000
    -0.0000  -0.0000  -0.0000  -0.0000

          k = 0.0000 0.2887-0.1483 (  1508 PWs)   bands (ev):

   -13.2191 -13.2191  -2.6398  -2.6398  -1.0705  -1.0705  -0.2682  -0.2682
    11.1180  11.1180  12.0694  12.0694

     occupation numbers 
     1.0000   1.0000   1.0000   1.0000   1.0000   1.0000   1.0000   1.0000
    -0.0000  -0.0000  -0.0000  -0.0000

          k = 0.0000 0.4330 0.0000 (  1514 PWs)   bands (ev):

   -11.4585 -11.4243  -5.9130  -5.8939  -1.2743  -1.2692   0.6951   1.1238
     8.4585   8.7111  12.1432  12.3250

     occupation numbers 
     1.0000   1.0000   1.0000   1.0000   1.0000   1.0000   1.0000   1.0000
    -0.0000  -0.0000  -0.0000  -0.0000

          k = 0.0000 0.4330-0.1483 (  1508 PWs)   bands (ev):

   -11.4415 -11.4415  -5.9035  -5.9035  -1.2717  -1.2717   0.9022   0.9022
     8.5726   8.5726  12.3264  12.3264

     occupation numbers 
     1.0000   1.0000   1.0000   1.0000   1.0000   1.0000   1.0000   1.0000
    -0.0000  -0.0000  -0.0000  -0.0000

          k = 0.0000-0.5774 0.0000 (  1508 PWs)   bands (ev):

    -9.4707  -9.4558  -8.4264  -8.4144  -1.6354  -1.6302   2.3588   2.5317
     6.3747   6.6124  12.1220  12.1881

     occupation numbers 
     1.0000   1.0000   1.0000   1.0000   1.0000   1.0000   1.0000   1.0000
    -0.0000  -0.0000  -0.0000  -0.0000

          k = 0.0000-0.5774-0.1483 (  1520 PWs)   bands (ev):

    -9.4632  -9.4632  -8.4206  -8.4206  -1.6328  -1.6328   2.4484   2.4484
     6.4734   6.4734  12.1549  12.1549

     occupation numbers 
     1.0000   1.0000   1.0000   1.0000   1.0000   1.0000   1.0000   1.0000
    -0.0000  -0.0000  -0.0000  -0.0000

          k = 0.1250 0.2165 0.0000 (  1511 PWs)   bands (ev):

   -13.6018 -13.5604  -1.7450  -1.4449  -1.4404  -1.2155  -0.3634  -0.3603
     9.4077  12.7685  12.9302  13.0071

     occupation numbers 
     1.0000   1.0000   1.0000   1.0000   1.0000   1.0000   1.0000   1.0000
    -0.0000  -0.0000  -0.0000  -0.0000

          k = 0.1250 0.2165-0.1483 (  1508 PWs)   bands (ev):

   -13.5812 -13.5812  -1.4921  -1.4921  -1.4426  -1.4426  -0.3618  -0.3618
    10.7097  10.7097  12.9673  12.9673

     occupation numbers 
     1.0000   1.0000   1.0000   1.0000   1.0000   1.0000   1.0000   1.0000
    -0.0000  -0.0000  -0.0000  -0.0000

          k = 0.1250 0.3608 0.0000 (  1516 PWs)   bands (ev):

   -12.1641 -12.1275  -4.2266  -4.2133  -1.8767  -1.8695  -0.0652   0.4080
     9.9034  10.0551  11.3114  14.0206

     occupation numbers 
     1.0000   1.0000   1.0000   1.0000   1.0000   1.0000   1.0000   1.0000
    -0.0000  -0.0000  -0.0000  -0.0000

          k = 0.1250 0.3608-0.1483 (  1512 PWs)   bands (ev):

   -12.1459 -12.1459  -4.2199  -4.2199  -1.8731  -1.8731   0.1621   0.1621
     9.9731   9.9731  12.5204  12.5204

     occupation numbers 
     1.0000   1.0000   1.0000   1.0000   1.0000   1.0000   1.0000   1.0000
    -0.0000  -0.0000  -0.0000  -0.0000

          k = 0.1250 0.5052 0.0000 (  1521 PWs)   bands (ev):

   -10.1044 -10.0753  -7.2144  -7.1936  -2.6427  -2.6338   2.0878   2.4083
     6.9226   7.1471  13.6721  13.7536

     occupation numbers 
     1.0000   1.0000   1.0000   1.0000   1.0000   1.0000   1.0000   1.0000
    -0.0000  -0.0000  -0.0000  -0.0000

          k = 0.1250 0.5052-0.1483 (  1512 PWs)   bands (ev):

   -10.0899 -10.0899  -7.2040  -7.2040  -2.6383  -2.6383   2.2454   2.2454
     7.0247   7.0247  13.7214  13.7215

     occupation numbers 
     1.0000   1.0000   1.0000   1.0000   1.0000   1.0000   1.0000   1.0000
    -0.0000  -0.0000  -0.0000  -0.0000

          k = 0.2500 0.4330 0.0000 (  1525 PWs)   bands (ev):

   -10.4303 -10.3996  -5.7379  -5.7288  -4.1554  -4.1483   1.8842   2.2716
     7.5370   7.6733  13.6411  15.3848

     occupation numbers 
     1.0000   1.0000   1.0000   1.0000   1.0000   1.0000   1.0000   1.0000
    -0.0000  -0.0000  -0.0000  -0.0000

          k = 0.2500 0.4330-0.1483 (  1534 PWs)   bands (ev):

   -10.4150 -10.4150  -5.7333  -5.7333  -4.1519  -4.1519   2.0720   2.0720
     7.6049   7.6049  14.4488  14.4488

     occupation numbers 
     1.0000   1.0000   1.0000   1.0000   1.0000   1.0000   1.0000   1.0000
    -0.0000  -0.0000  -0.0000  -0.0000

          k = 0.2500 0.5774 0.0000 (  1531 PWs)   bands (ev):

    -8.5266  -8.5134  -7.6457  -7.6393  -4.9388  -4.9262   3.6952   3.8595
     5.7515   5.7553  15.6976  16.0021

     occupation numbers 
     1.0000   1.0000   1.0000   1.0000   1.0000   1.0000   1.0318   0.9536
    -0.0000  -0.0000  -0.0000  -0.0000

          k = 0.2500 0.5774-0.1483 (  1542 PWs)   bands (ev):

    -8.5200  -8.5200  -7.6426  -7.6426  -4.9325  -4.9325   3.7820   3.7820
     5.7444   5.7444  15.4267  15.4267

     occupation numbers 
     1.0000   1.0000   1.0000   1.0000   1.0000   1.0000   1.0063   1.0063
    -0.0000  -0.0000  -0.0000  -0.0000

          k =-0.1250-0.0722 0.0000 (  1495 PWs)   bands (ev):

   -14.3320 -14.2881  -2.6186  -2.0655   0.3542   0.3589   1.0307   1.0338
     8.4494  11.9257  13.1434  13.1843

     occupation numbers 
     1.0000   1.0000   1.0000   1.0000   1.0000   1.0000   1.0000   1.0000
    -0.0000  -0.0000  -0.0000  -0.0000

          k =-0.1250-0.0722 0.1483 (  1496 PWs)   bands (ev):

   -14.3101 -14.3101  -2.3549  -2.3549   0.3566   0.3566   1.0322   1.0322
     9.7898   9.7898  13.1750  13.1751

     occupation numbers 
     1.0000   1.0000   1.0000   1.0000   1.0000   1.0000   1.0000   1.0000
    -0.0000  -0.0000  -0.0000  -0.0000

          k =-0.2500-0.1443 0.0000 (  1497 PWs)   bands (ev):

   -13.2390 -13.1988  -2.6439  -2.6325  -1.3176  -0.8014  -0.2724  -0.2679
     9.8819  11.9197  12.0390  12.7846

     occupation numbers 
     1.0000   1.0000   1.0000   1.0000   1.0000   1.0000   1.0000   1.0000
    -0.0000  -0.0000  -0.0000  -0.0000

          k =-0.2500-0.1443 0.1483 (  1508 PWs)   bands (ev):

   -13.2191 -13.2191  -2.6382  -2.6382  -1.0707  -1.0707  -0.2702  -0.2702
    11.1178  11.1178  12.0705  12.0706

     occupation numbers 
     1.0000   1.0000   1.0000   1.0000   1.0000   1.0000   1.0000   1.0000
    -0.0000  -0.0000  -0.0000  -0.0000

          k =-0.3750-0.2165 0.0000 (  1514 PWs)   bands (ev):

   -11.4585 -11.4243  -5.9119  -5.8929  -1.2758  -1.2708   0.6946   1.1231
     8.4600   8.7126  12.1429  12.3242

     occupation numbers 
     1.0000   1.0000   1.0000   1.0000   1.0000   1.0000   1.0000   1.0000
    -0.0000  -0.0000  -0.0000  -0.0000

          k =-0.3750-0.2165 0.1483 (  1508 PWs)   bands (ev):

   -11.4415 -11.4415  -5.9024  -5.9024  -1.2733  -1.2733   0.9016   0.9016
     8.5740   8.5740  12.3257  12.3257

     occupation numbers 
     1.0000   1.0000   1.0000   1.0000   1.0000   1.0000   1.0000   1.0000
    -0.0000  -0.0000  -0.0000  -0.0000

          k = 0.5000 0.2887 0.0000 (  1508 PWs)   bands (ev):

    -9.4715  -9.4566  -8.4245  -8.4126  -1.6368  -1.6316   2.3573   2.5302
     6.3771   6.6150  12.1214  12.1874

     occupation numbers 
     1.0000   1.0000   1.0000   1.0000   1.0000   1.0000   1.0000   1.0000
    -0.0000  -0.0000  -0.0000  -0.0000

          k = 0.5000 0.2887 0.1483 (  1520 PWs)   bands (ev):

    -9.4640  -9.4640  -8.4187  -8.4187  -1.6342  -1.6342   2.4469   2.4469
     6.4758   6.4758  12.1542  12.1542

     occupation numbers 
     1.0000   1.0000   1.0000   1.0000   1.0000   1.0000   1.0000   1.0000
    -0.0000  -0.0000  -0.0000  -0.0000

          k = 0.2500-0.0000 0.0000 (  1511 PWs)   bands (ev):

   -13.6018 -13.5604  -1.7451  -1.4426  -1.4381  -1.2156  -0.3659  -0.3628
     9.4077  12.7684  12.9309  13.0078

     occupation numbers 
     1.0000   1.0000   1.0000   1.0000   1.0000   1.0000   1.0000   1.0000
    -0.0000  -0.0000  -0.0000  -0.0000

          k = 0.2500-0.0000 0.1483 (  1508 PWs)   bands (ev):

   -13.5812 -13.5812  -1.4922  -1.4922  -1.4403  -1.4403  -0.3644  -0.3644
    10.7097  10.7097  12.9680  12.9680

     occupation numbers 
     1.0000   1.0000   1.0000   1.0000   1.0000   1.0000   1.0000   1.0000
    -0.0000  -0.0000  -0.0000  -0.0000

          k =-0.2500-0.2887 0.0000 (  1516 PWs)   bands (ev):

   -12.1640 -12.1275  -4.2256  -4.2123  -1.8780  -1.8707  -0.0654   0.4079
     9.9041  10.0557  11.3114  14.0200

     occupation numbers 
     1.0000   1.0000   1.0000   1.0000   1.0000   1.0000   1.0000   1.0000
    -0.0000  -0.0000  -0.0000  -0.0000

          k = 0.3750-0.0722 0.0000 (  1516 PWs)   bands (ev):

   -12.1640 -12.1274  -4.2249  -4.2116  -1.8787  -1.8714  -0.0655   0.4077
     9.9047  10.0564  11.3114  14.0187

     occupation numbers 
     1.0000   1.0000   1.0000   1.0000   1.0000   1.0000   1.0000   1.0000
    -0.0000  -0.0000  -0.0000  -0.0000

          k =-0.2500-0.2887 0.1483 (  1512 PWs)   bands (ev):

   -12.1459 -12.1459  -4.2189  -4.2189  -1.8743  -1.8743   0.1619   0.1619
     9.9737   9.9737  12.5204  12.5206

     occupation numbers 
     1.0000   1.0000   1.0000   1.0000   1.0000   1.0000   1.0000   1.0000
    -0.0000  -0.0000  -0.0000  -0.0000

          k = 0.3750-0.0722 0.1483 (  1512 PWs)   bands (ev):

   -12.1458 -12.1458  -4.2183  -4.2183  -1.8751  -1.8751   0.1617   0.1617
     9.9744   9.9744  12.5202  12.5203

     occupation numbers 
     1.0000   1.0000   1.0000   1.0000   1.0000   1.0000   1.0000   1.0000
    -0.0000  -0.0000  -0.0000  -0.0000

          k =-0.3750-0.3608 0.0000 (  1521 PWs)   bands (ev):

   -10.1045 -10.0755  -7.2133  -7.1925  -2.6440  -2.6351   2.0869   2.4073
     6.9243   7.1488  13.6715  13.7530

     occupation numbers 
     1.0000   1.0000   1.0000   1.0000   1.0000   1.0000   1.0000   1.0000
    -0.0000  -0.0000  -0.0000  -0.0000

          k = 0.5000-0.1443 0.0000 (  1521 PWs)   bands (ev):

   -10.1045 -10.0754  -7.2132  -7.1924  -2.6441  -2.6353   2.0867   2.4071
     6.9246   7.1492  13.6711  13.7527

     occupation numbers 
     1.0000   1.0000   1.0000   1.0000   1.0000   1.0000   1.0000   1.0000
    -0.0000  -0.0000  -0.0000  -0.0000

          k =-0.3750-0.3608 0.1483 (  1512 PWs)   bands (ev):

   -10.0900 -10.0900  -7.2029  -7.2029  -2.6396  -2.6396   2.2445   2.2445
     7.0263   7.0263  13.7208  13.7208

     occupation numbers 
     1.0000   1.0000   1.0000   1.0000   1.0000   1.0000   1.0000   1.0000
    -0.0000  -0.0000  -0.0000  -0.0000

          k = 0.5000-0.1443 0.1483 (  1512 PWs)   bands (ev):

   -10.0900 -10.0900  -7.2028  -7.2028  -2.6397  -2.6397   2.2443   2.2443
     7.0267   7.0267  13.7205  13.7205

     occupation numbers 
     1.0000   1.0000   1.0000   1.0000   1.0000   1.0000   1.0000   1.0000
    -0.0000  -0.0000  -0.0000  -0.0000

          k = 0.5000-0.0000 0.0000 (  1525 PWs)   bands (ev):

   -10.4303 -10.3995  -5.7365  -5.7273  -4.1570  -4.1499   1.8837   2.2710
     7.5383   7.6746  13.6411  15.3839

     occupation numbers 
     1.0000   1.0000   1.0000   1.0000   1.0000   1.0000   1.0000   1.0000
    -0.0000  -0.0000  -0.0000  -0.0000

          k = 0.5000-0.0000 0.1483 (  1534 PWs)   bands (ev):

   -10.4150 -10.4150  -5.7319  -5.7319  -4.1535  -4.1535   2.0714   2.0714
     7.6062   7.6062  14.4484  14.4484

     occupation numbers 
     1.0000   1.0000   1.0000   1.0000   1.0000   1.0000   1.0000   1.0000
    -0.0000  -0.0000  -0.0000  -0.0000

          k =-0.3750-0.5052 0.0000 (  1531 PWs)   bands (ev):

    -8.5276  -8.5144  -7.6437  -7.6373  -4.9399  -4.9274   3.6938   3.8581
     5.7534   5.7572  15.6966  16.0020

     occupation numbers 
     1.0000   1.0000   1.0000   1.0000   1.0000   1.0000   1.0320   0.9549
    -0.0000  -0.0000  -0.0000  -0.0000

          k =-0.3750-0.5052 0.1483 (  1542 PWs)   bands (ev):

    -8.5209  -8.5209  -7.6406  -7.6406  -4.9337  -4.9337   3.7805   3.7805
     5.7463   5.7463  15.4262  15.4263

     occupation numbers 
     1.0000   1.0000   1.0000   1.0000   1.0000   1.0000   1.0070   1.0070
    -0.0000  -0.0000  -0.0000  -0.0000

     the Fermi energy is     4.1381 ev

!    total energy              =     -49.71408447 Ry
     estimated scf accuracy    <          7.1E-10 Ry
     smearing contrib. (-TS)   =       0.00034636 Ry
     internal energy E=F+TS    =     -49.71443083 Ry

     The total energy is F=E-TS. E is the sum of the following terms:
     one-electron contribution =     -29.91353828 Ry
     hartree contribution      =      21.74050106 Ry
     xc contribution           =     -18.53809108 Ry
     ewald contribution        =     -23.00330253 Ry

     convergence has been achieved in   6 iterations

     Forces acting on atoms (cartesian axes, Ry/au):

     atom    1 type  1   force =     0.00000000   -0.00029114    0.00000000
     atom    2 type  1   force =     0.00000000    0.00029114    0.00000000
     atom    3 type  1   force =     0.00000000    0.00029202    0.00000000
     atom    4 type  1   force =    -0.00000000   -0.00029202    0.00000000
     The non-local contrib.  to forces
     atom    1 type  1   force =     0.00000000   -0.00026084   -0.00000000
     atom    2 type  1   force =     0.00000000    0.00026084   -0.00000000
     atom    3 type  1   force =     0.00000000    0.00026140    0.00000000
     atom    4 type  1   force =     0.00000000   -0.00026140    0.00000000
     The ionic contribution  to forces
     atom    1 type  1   force =    -0.00000000   -0.00098176   -0.00000000
     atom    2 type  1   force =    -0.00000000    0.00098176    0.00000000
     atom    3 type  1   force =    -0.00000000    0.00098202   -0.00000000
     atom    4 type  1   force =     0.00000000   -0.00098202    0.00000000
     The local contribution  to forces
     atom    1 type  1   force =     0.00000000    0.00094257    0.00000000
     atom    2 type  1   force =    -0.00000000   -0.00094257    0.00000000
     atom    3 type  1   force =     0.00000000   -0.00094350    0.00000000
     atom    4 type  1   force =    -0.00000000    0.00094350    0.00000000
     The core correction contribution to forces
     atom    1 type  1   force =     0.00000000    0.00000848   -0.00000000
     atom    2 type  1   force =     0.00000000   -0.00000848   -0.00000000
     atom    3 type  1   force =    -0.00000000   -0.00000775   -0.00000000
     atom    4 type  1   force =     0.00000000    0.00000775   -0.00000000
     The Hubbard contrib.    to forces
     atom    1 type  1   force =     0.00000000    0.00000000    0.00000000
     atom    2 type  1   force =     0.00000000    0.00000000    0.00000000
     atom    3 type  1   force =     0.00000000    0.00000000    0.00000000
     atom    4 type  1   force =     0.00000000    0.00000000    0.00000000
     The SCF correction term to forces
     atom    1 type  1   force =    -0.00000000    0.00000041    0.00000000
     atom    2 type  1   force =    -0.00000000   -0.00000041    0.00000000
     atom    3 type  1   force =     0.00000000   -0.00000014    0.00000000
     atom    4 type  1   force =    -0.00000000    0.00000014    0.00000000

     Total force =     0.000583     Total SCF correction =     0.000001


     Computing stress (Cartesian axis) and pressure

          total   stress  (Ry/bohr**3)                   (kbar)     P=      -12.35
  -0.00012606  -0.00000000   0.00000000          -18.54       -0.00        0.00
  -0.00000000  -0.00012468   0.00000000           -0.00      -18.34        0.00
   0.00000000   0.00000000  -0.00000108            0.00        0.00       -0.16

     kinetic stress (kbar)   9266.85      0.00      0.00
                                0.00   9266.14      0.00
                                0.00      0.00  10528.51

     local   stress (kbar) -26774.48     -0.00      0.00
                               -0.00 -26778.89      0.00
                                0.00      0.00  27091.38

     nonloc. stress (kbar)   1801.46      0.00      0.00
                                0.00   1801.62      0.00
                                0.00      0.00   1655.04

     hartree stress (kbar)   9939.71     -0.00     -0.00
                               -0.00   9940.33     -0.00
                               -0.00     -0.00  -9112.13

     exc-cor stress (kbar)   -164.96      0.00      0.00
                                0.00   -164.93      0.00
                                0.00      0.00   -269.58

     corecor stress (kbar)  -2235.97     -0.00      0.00
                               -0.00  -2236.00      0.00
                                0.00      0.00  -2197.78

     ewald   stress (kbar)   8148.85     -0.00     -0.00
                               -0.00   8153.39      0.00
                               -0.00      0.00 -27695.59

     hubbard stress (kbar)      0.00      0.00      0.00
                                0.00      0.00      0.00
                                0.00      0.00      0.00

     DFT-D   stress (kbar)      0.00      0.00      0.00
                                0.00      0.00      0.00
                                0.00      0.00      0.00

     XDM     stress (kbar)      0.00      0.00      0.00
                                0.00      0.00      0.00
                                0.00      0.00      0.00

     dft-nl  stress (kbar)      0.00      0.00      0.00
                                0.00      0.00      0.00
                                0.00      0.00      0.00

     TS-vdW  stress (kbar)      0.00      0.00      0.00
                                0.00      0.00      0.00
                                0.00      0.00      0.00



     Writing output data file ./tmp/C.save/

     init_run     :      2.03s CPU      2.09s WALL (       1 calls)
     electrons    :     16.12s CPU     16.54s WALL (       1 calls)
     forces       :      0.79s CPU      0.81s WALL (       1 calls)
     stress       :      1.78s CPU      1.80s WALL (       1 calls)

     Called by init_run:
     wfcinit      :      1.07s CPU      1.08s WALL (       1 calls)
     wfcinit:atom :      0.03s CPU      0.03s WALL (      42 calls)
     wfcinit:wfcr :      0.84s CPU      0.84s WALL (      42 calls)
     potinit      :      0.24s CPU      0.26s WALL (       1 calls)
     hinit0       :      0.62s CPU      0.62s WALL (       1 calls)

     Called by electrons:
     c_bands      :     12.35s CPU     12.65s WALL (       6 calls)
     sum_band     :      2.48s CPU      2.59s WALL (       6 calls)
     v_of_rho     :      1.03s CPU      1.06s WALL (       7 calls)
     v_h          :      0.05s CPU      0.05s WALL (       7 calls)
     v_xc         :      1.25s CPU      1.28s WALL (       9 calls)
     newd         :      0.31s CPU      0.33s WALL (       7 calls)
     mix_rho      :      0.08s CPU      0.08s WALL (       6 calls)

     Called by c_bands:
     init_us_2    :      0.54s CPU      0.56s WALL (     630 calls)
     cegterg      :     11.64s CPU     11.91s WALL (     252 calls)

     Called by sum_band:
     sum_band:wei :      0.01s CPU      0.01s WALL (       6 calls)
     sum_band:loo :      1.93s CPU      2.01s WALL (       6 calls)
     sum_band:buf :      0.02s CPU      0.02s WALL (     252 calls)
     sum_band:ini :      0.22s CPU      0.22s WALL (     252 calls)
     sum_band:cal :      0.17s CPU      0.17s WALL (     252 calls)
     sum_band:bec :      0.01s CPU      0.01s WALL (     252 calls)
     addusdens    :      0.28s CPU      0.31s WALL (       6 calls)
     addusd:skk   :      0.01s CPU      0.01s WALL (       6 calls)
     addusd:dgemm :      0.07s CPU      0.09s WALL (       6 calls)
     addusd:qvan2 :      0.12s CPU      0.13s WALL (       6 calls)

     Called by *egterg:
     cdiaghg      :      0.44s CPU      0.45s WALL (    1120 calls)
     cegterg:over :      0.55s CPU      0.56s WALL (     868 calls)
     cegterg:upda :      0.39s CPU      0.40s WALL (     868 calls)
     cegterg:last :      0.61s CPU      0.63s WALL (     565 calls)
     h_psi        :      9.43s CPU      9.63s WALL (    1162 calls)
     s_psi        :      0.51s CPU      0.53s WALL (    1162 calls)
     g_psi        :      0.13s CPU      0.13s WALL (     868 calls)

     Called by h_psi:
     h_psi:calbec :      0.61s CPU      0.63s WALL (    1162 calls)
     vloc_psi     :      8.13s CPU      8.29s WALL (    1162 calls)
     add_vuspsi   :      0.57s CPU      0.60s WALL (    1162 calls)

     General routines
     calbec       :      0.89s CPU      0.92s WALL (    1624 calls)
     fft          :      0.68s CPU      0.68s WALL (     114 calls)
     ffts         :      0.02s CPU      0.02s WALL (      13 calls)
     fftw         :      7.62s CPU      7.81s WALL (   20998 calls)
     interpolate  :      0.05s CPU      0.06s WALL (       7 calls)

     Parallel routines

     PWSCF        :     20.91s CPU     21.47s WALL


   This run was terminated on:  17:16:49  23May2022            

=------------------------------------------------------------------------------=
   JOB DONE.
=------------------------------------------------------------------------------=
