
     Program PWSCF v.6.7MaX starts on 23May2022 at 17:14:31 

     This program is part of the open-source Quantum ESPRESSO suite
     for quantum simulation of materials; please cite
         "P. Giannozzi et al., J. Phys.:Condens. Matter 21 395502 (2009);
         "P. Giannozzi et al., J. Phys.:Condens. Matter 29 465901 (2017);
          URL http://www.quantum-espresso.org", 
     in publications or presentations arising from this work. More details at
     http://www.quantum-espresso.org/quote

     Parallel version (MPI), running on     1 processors

     MPI processes distributed on     1 nodes
     Waiting for input...
     Reading input from standard input

     Current dimensions of program PWSCF are:
     Max number of different atomic species (ntypx) = 10
     Max number of k-points (npk) =  40000
     Max angular momentum in pseudopotentials (lmaxx) =  3

     Subspace diagonalization in iterative solution of the eigenvalue problem:
     a serial algorithm will be used


     G-vector sticks info
     --------------------
     sticks:   dense  smooth     PW     G-vecs:    dense   smooth      PW
     Sum         547     265     85                34301    12031    2211



     bravais-lattice index     =            4
     lattice parameter (alat)  =       4.6676  a.u.
     unit-cell volume          =     297.0066 (a.u.)^3
     number of atoms/cell      =            4
     number of atomic types    =            1
     number of electrons       =        16.00
     number of Kohn-Sham states=           12
     kinetic-energy cutoff     =      45.0000  Ry
     charge density cutoff     =     360.0000  Ry
     scf convergence threshold =      1.0E-09
     mixing beta               =       0.7000
     number of iterations used =            8  plain     mixing
     Exchange-correlation= PBE
                           (   1   4   3   4   0   0   0)

     celldm(1)=   4.667624  celldm(2)=   1.000000  celldm(3)=   3.372470
     celldm(4)=   0.000000  celldm(5)=   0.000000  celldm(6)=   0.000000

     crystal axes: (cart. coord. in units of alat)
               a(1) = (   1.000000   0.000000   0.000000 )  
               a(2) = (  -0.500000   0.866025   0.000000 )  
               a(3) = (   0.000000   0.000000   3.372470 )  

     reciprocal axes: (cart. coord. in units 2 pi/alat)
               b(1) = (  1.000000  0.577350 -0.000000 )  
               b(2) = (  0.000000  1.154701  0.000000 )  
               b(3) = (  0.000000 -0.000000  0.296519 )  


     PseudoPot. # 1 for C  read from file:
     /home/max/Desktop/graphite_DFT/Pseudo/C.pbe-n-rrkjus_psl.1.0.0.UPF
     MD5 check sum: 1fdd950c42eb37d8afe3dd2f8d12311e
     Pseudo is Ultrasoft + core correction, Zval =  4.0
     Generated using &quot;atomic&quot; code by A. Dal Corso  v.6.3MaX
     Using radial grid of 1073 points,  4 beta functions with: 
                l(1) =   0
                l(2) =   0
                l(3) =   1
                l(4) =   1
     Q(r) pseudized with 0 coefficients 


     atomic species   valence    mass     pseudopotential
        C              4.00    12.01100     C ( 1.00)

      8 Sym. Ops., with inversion, found ( 4 have fractional translation)


                                    s                        frac. trans.

      isym =  1     identity                                     

 cryst.   s( 1) = (     1          0          0      )
                  (     0          1          0      )
                  (     0          0          1      )

 cart.    s( 1) = (  1.0000000  0.0000000  0.0000000 )
                  (  0.0000000  1.0000000  0.0000000 )
                  (  0.0000000  0.0000000  1.0000000 )


      isym =  2     180 deg rotation - cart. axis [0,0,1]        

 cryst.   s( 2) = (    -1          0          0      )    f =(  0.0000000 )
                  (     0         -1          0      )       (  0.0000000 )
                  (     0          0          1      )       ( -0.5000000 )

 cart.    s( 2) = ( -1.0000000  0.0000000  0.0000000 )    f =(  0.0000000 )
                  (  0.0000000 -1.0000000  0.0000000 )       (  0.0000000 )
                  (  0.0000000  0.0000000  1.0000000 )       ( -1.6862348 )


      isym =  3     180 deg rotation - cart. axis [0,1,0]        

 cryst.   s( 3) = (    -1          0          0      )    f =(  0.0000000 )
                  (     1          1          0      )       (  0.0000000 )
                  (     0          0         -1      )       (  0.5000000 )

 cart.    s( 3) = ( -1.0000000  0.0000000  0.0000000 )    f =(  0.0000000 )
                  (  0.0000000  1.0000000  0.0000000 )       (  0.0000000 )
                  (  0.0000000  0.0000000 -1.0000000 )       (  1.6862348 )


      isym =  4     180 deg rotation - cart. axis [1,0,0]        

 cryst.   s( 4) = (     1          0          0      )
                  (    -1         -1          0      )
                  (     0          0         -1      )

 cart.    s( 4) = (  1.0000000  0.0000000  0.0000000 )
                  (  0.0000000 -1.0000000  0.0000000 )
                  (  0.0000000  0.0000000 -1.0000000 )


      isym =  5     inversion                                    

 cryst.   s( 5) = (    -1          0          0      )
                  (     0         -1          0      )
                  (     0          0         -1      )

 cart.    s( 5) = ( -1.0000000  0.0000000  0.0000000 )
                  (  0.0000000 -1.0000000  0.0000000 )
                  (  0.0000000  0.0000000 -1.0000000 )


      isym =  6     inv. 180 deg rotation - cart. axis [0,0,1]   

 cryst.   s( 6) = (     1          0          0      )    f =(  0.0000000 )
                  (     0          1          0      )       (  0.0000000 )
                  (     0          0         -1      )       (  0.5000000 )

 cart.    s( 6) = (  1.0000000  0.0000000  0.0000000 )    f =(  0.0000000 )
                  (  0.0000000  1.0000000  0.0000000 )       (  0.0000000 )
                  (  0.0000000  0.0000000 -1.0000000 )       (  1.6862348 )


      isym =  7     inv. 180 deg rotation - cart. axis [0,1,0]   

 cryst.   s( 7) = (     1          0          0      )    f =(  0.0000000 )
                  (    -1         -1          0      )       (  0.0000000 )
                  (     0          0          1      )       ( -0.5000000 )

 cart.    s( 7) = (  1.0000000  0.0000000  0.0000000 )    f =(  0.0000000 )
                  (  0.0000000 -1.0000000  0.0000000 )       (  0.0000000 )
                  (  0.0000000  0.0000000  1.0000000 )       ( -1.6862348 )


      isym =  8     inv. 180 deg rotation - cart. axis [1,0,0]   

 cryst.   s( 8) = (    -1          0          0      )
                  (     1          1          0      )
                  (     0          0          1      )

 cart.    s( 8) = ( -1.0000000  0.0000000  0.0000000 )
                  (  0.0000000  1.0000000  0.0000000 )
                  (  0.0000000  0.0000000  1.0000000 )


     point group D_2h (mmm) 
     there are  8 classes
     the character table:

       E     C2    C2'   C2''  i     s_v   s_v'  s_v''
A_g    1.00  1.00  1.00  1.00  1.00  1.00  1.00  1.00
B_1g   1.00  1.00 -1.00 -1.00  1.00  1.00 -1.00 -1.00
B_2g   1.00 -1.00  1.00 -1.00  1.00 -1.00  1.00 -1.00
B_3g   1.00 -1.00 -1.00  1.00  1.00 -1.00 -1.00  1.00
A_u    1.00  1.00  1.00  1.00 -1.00 -1.00 -1.00 -1.00
B_1u   1.00  1.00 -1.00 -1.00 -1.00 -1.00  1.00  1.00
B_2u   1.00 -1.00  1.00 -1.00 -1.00  1.00 -1.00  1.00
B_3u   1.00 -1.00 -1.00  1.00 -1.00  1.00  1.00 -1.00

     the symmetry operations in each class and the name of the first element:

     E        1
          identity                                               
     C2       2
          180 deg rotation - cart. axis [0,0,1]                  
     C2'      4
          180 deg rotation - cart. axis [1,0,0]                  
     C2''     3
          180 deg rotation - cart. axis [0,1,0]                  
     i        5
          inversion                                              
     s_v      6
          inv. 180 deg rotation - cart. axis [0,0,1]             
     s_v'     8
          inv. 180 deg rotation - cart. axis [1,0,0]             
     s_v''    7
          inv. 180 deg rotation - cart. axis [0,1,0]             

   Cartesian axes

     site n.     atom                  positions (alat units)
         1           C   tau(   1) = (   0.0000000   0.0000000   0.8431174  )
         2           C   tau(   2) = (   0.0000000   0.0000000   2.5293522  )
         3           C   tau(   3) = (   0.0000000   0.5772925   0.8431174  )
         4           C   tau(   4) = (   0.5000000   0.2887329   2.5293522  )

   Crystallographic axes

     site n.     atom                  positions (cryst. coord.)
         1           C   tau(   1) = (  0.0000000  0.0000000  0.2500000  )
         2           C   tau(   2) = (  0.0000000  0.0000000  0.7500000  )
         3           C   tau(   3) = (  0.3333000  0.6666000  0.2500000  )
         4           C   tau(   4) = (  0.6667000  0.3334000  0.7500000  )

     number of k points=     4  Methfessel-Paxton smearing, width (Ry)=  0.0300
                       cart. coord. in units 2pi/alat
        k(    1) = (   0.0000000   0.0000000   0.0000000), wk =   0.2222222
        k(    2) = (   0.0000000   0.3849002   0.0000000), wk =   0.4444444
        k(    3) = (   0.3333333   0.5773503   0.0000000), wk =   0.4444444
        k(    4) = (  -0.3333333  -0.1924501   0.0000000), wk =   0.8888889

                       cryst. coord.
        k(    1) = (   0.0000000   0.0000000   0.0000000), wk =   0.2222222
        k(    2) = (   0.0000000   0.3333333   0.0000000), wk =   0.4444444
        k(    3) = (   0.3333333   0.3333333   0.0000000), wk =   0.4444444
        k(    4) = (  -0.3333333  -0.0000000   0.0000000), wk =   0.8888889

     Dense  grid:    34301 G-vectors     FFT dimensions: (  30,  30,  96)

     Smooth grid:    12031 G-vectors     FFT dimensions: (  20,  20,  72)

     Dynamical RAM for                 wfc:       0.28 MB

     Dynamical RAM for     wfc (w. buffer):       1.39 MB

     Dynamical RAM for           str. fact:       0.52 MB

     Dynamical RAM for           local pot:       0.00 MB

     Dynamical RAM for          nlocal pot:       0.74 MB

     Dynamical RAM for                qrad:       0.44 MB

     Dynamical RAM for          rho,v,vnew:       3.55 MB

     Dynamical RAM for               rhoin:       1.18 MB

     Dynamical RAM for            rho*nmix:       8.37 MB

     Dynamical RAM for           G-vectors:       2.05 MB

     Dynamical RAM for          h,s,v(r/c):       0.03 MB

     Dynamical RAM for          <psi|beta>:       0.01 MB

     Dynamical RAM for                 psi:       0.55 MB

     Dynamical RAM for                hpsi:       0.55 MB

     Dynamical RAM for                spsi:       0.55 MB

     Dynamical RAM for      wfcinit/wfcrot:       0.75 MB

     Dynamical RAM for           addusdens:      24.60 MB

     Dynamical RAM for          addusforce:      28.00 MB

     Dynamical RAM for         addusstress:      26.17 MB

     Estimated static dynamical RAM per process >      22.59 MB

     Estimated max dynamical RAM per process >      50.59 MB

     Check: negative core charge=   -0.000010

     Initial potential from superposition of free atoms

     starting charge   15.99983, renormalised to   16.00000
     Starting wfcs are   16 randomized atomic wfcs

     total cpu time spent up to now is        1.2 secs

     Self-consistent Calculation

     iteration #  1     ecut=    45.00 Ry     beta= 0.70
     Davidson diagonalization with overlap
     ethr =  1.00E-02,  avg # of iterations =  3.0

     total cpu time spent up to now is        1.7 secs

     total energy              =     -49.58600498 Ry
     estimated scf accuracy    <       0.38881819 Ry

     iteration #  2     ecut=    45.00 Ry     beta= 0.70
     Davidson diagonalization with overlap
     ethr =  2.43E-03,  avg # of iterations =  3.5

     total cpu time spent up to now is        2.2 secs

     total energy              =     -49.63813266 Ry
     estimated scf accuracy    <       0.00476556 Ry

     iteration #  3     ecut=    45.00 Ry     beta= 0.70
     Davidson diagonalization with overlap
     ethr =  2.98E-05,  avg # of iterations =  7.0

     total cpu time spent up to now is        2.8 secs

     total energy              =     -49.63844812 Ry
     estimated scf accuracy    <       0.00034844 Ry

     iteration #  4     ecut=    45.00 Ry     beta= 0.70
     Davidson diagonalization with overlap
     ethr =  2.18E-06,  avg # of iterations =  2.2

     total cpu time spent up to now is        3.3 secs

     total energy              =     -49.63846404 Ry
     estimated scf accuracy    <       0.00003147 Ry

     iteration #  5     ecut=    45.00 Ry     beta= 0.70
     Davidson diagonalization with overlap
     ethr =  1.97E-07,  avg # of iterations =  1.0

     total cpu time spent up to now is        3.8 secs

     total energy              =     -49.63846943 Ry
     estimated scf accuracy    <       0.00000144 Ry

     iteration #  6     ecut=    45.00 Ry     beta= 0.70
     Davidson diagonalization with overlap
     ethr =  8.98E-09,  avg # of iterations =  2.0

     total cpu time spent up to now is        4.4 secs

     total energy              =     -49.63846981 Ry
     estimated scf accuracy    <       0.00000008 Ry

     iteration #  7     ecut=    45.00 Ry     beta= 0.70
     Davidson diagonalization with overlap
     ethr =  4.78E-10,  avg # of iterations =  4.0

     total cpu time spent up to now is        5.0 secs

     total energy              =     -49.63846983 Ry
     estimated scf accuracy    <          5.1E-09 Ry

     iteration #  8     ecut=    45.00 Ry     beta= 0.70
     Davidson diagonalization with overlap
     ethr =  3.17E-11,  avg # of iterations =  2.0

     total cpu time spent up to now is        5.5 secs

     End of self-consistent calculation

          k = 0.0000 0.0000 0.0000 (  1497 PWs)   bands (ev):

   -14.6698 -14.6242  -3.0479  -2.4807   1.7748   1.7763   1.7787   1.7801
     7.9632  11.4903  13.1263  13.1322

     occupation numbers 
     1.0000   1.0000   1.0000   1.0000   1.0000   1.0000   1.0000   1.0000
    -0.0000  -0.0000  -0.0000  -0.0000

          k = 0.0000 0.3849 0.0000 (  1504 PWs)   bands (ev):

   -12.0922 -12.0554  -4.8058  -4.7892  -0.9607  -0.9558  -0.0163   0.4545
     9.6149   9.8324  11.3419  12.4816

     occupation numbers 
     1.0000   1.0000   1.0000   1.0000   1.0000   1.0000   1.0000   1.0000
    -0.0000  -0.0000  -0.0000  -0.0000

          k = 0.3333 0.5774 0.0000 (  1527 PWs)   bands (ev):

    -7.7677  -7.7541  -7.7540  -7.7434  -5.7111  -5.7111   4.6653   4.8246
     4.8247   4.9846  15.4863  15.4868

     occupation numbers 
     1.0000   1.0000   1.0000   1.0000   1.0000   1.0000   0.8043   0.5004
     0.5002   0.1952  -0.0000  -0.0000

          k =-0.3333-0.1925 0.0000 (  1504 PWs)   bands (ev):

   -12.0921 -12.0554  -4.8048  -4.7882  -0.9622  -0.9572  -0.0166   0.4542
     9.6161   9.8335  11.3419  12.4809

     occupation numbers 
     1.0000   1.0000   1.0000   1.0000   1.0000   1.0000   1.0000   1.0000
    -0.0000  -0.0000  -0.0000  -0.0000

     the Fermi energy is     4.8248 ev

!    total energy              =     -49.63846983 Ry
     estimated scf accuracy    <          2.3E-11 Ry
     smearing contrib. (-TS)   =      -0.00600198 Ry
     internal energy E=F+TS    =     -49.63246786 Ry

     The total energy is F=E-TS. E is the sum of the following terms:
     one-electron contribution =     -29.85742933 Ry
     hartree contribution      =      21.78006227 Ry
     xc contribution           =     -18.55179827 Ry
     ewald contribution        =     -23.00330253 Ry

     convergence has been achieved in   8 iterations

     Forces acting on atoms (cartesian axes, Ry/au):

     atom    1 type  1   force =     0.00000000    0.00004251    0.00000000
     atom    2 type  1   force =     0.00000000   -0.00004251    0.00000000
     atom    3 type  1   force =    -0.00000000   -0.00004154    0.00000000
     atom    4 type  1   force =     0.00000000    0.00004154    0.00000000
     The non-local contrib.  to forces
     atom    1 type  1   force =     0.00000000   -0.00020276   -0.00000000
     atom    2 type  1   force =    -0.00000000    0.00020276    0.00000000
     atom    3 type  1   force =     0.00000000    0.00020290    0.00000000
     atom    4 type  1   force =    -0.00000000   -0.00020290    0.00000000
     The ionic contribution  to forces
     atom    1 type  1   force =    -0.00000000   -0.00098176   -0.00000000
     atom    2 type  1   force =    -0.00000000    0.00098176    0.00000000
     atom    3 type  1   force =    -0.00000000    0.00098202   -0.00000000
     atom    4 type  1   force =     0.00000000   -0.00098202    0.00000000
     The local contribution  to forces
     atom    1 type  1   force =     0.00000000    0.00121778    0.00000000
     atom    2 type  1   force =     0.00000000   -0.00121778    0.00000000
     atom    3 type  1   force =    -0.00000000   -0.00121804    0.00000000
     atom    4 type  1   force =    -0.00000000    0.00121804    0.00000000
     The core correction contribution to forces
     atom    1 type  1   force =     0.00000000    0.00000913   -0.00000000
     atom    2 type  1   force =     0.00000000   -0.00000913   -0.00000000
     atom    3 type  1   force =     0.00000000   -0.00000840   -0.00000000
     atom    4 type  1   force =     0.00000000    0.00000840   -0.00000000
     The Hubbard contrib.    to forces
     atom    1 type  1   force =     0.00000000    0.00000000    0.00000000
     atom    2 type  1   force =     0.00000000    0.00000000    0.00000000
     atom    3 type  1   force =     0.00000000    0.00000000    0.00000000
     atom    4 type  1   force =     0.00000000    0.00000000    0.00000000
     The SCF correction term to forces
     atom    1 type  1   force =    -0.00000000    0.00000011   -0.00000000
     atom    2 type  1   force =    -0.00000000   -0.00000011   -0.00000000
     atom    3 type  1   force =     0.00000000   -0.00000001   -0.00000000
     atom    4 type  1   force =    -0.00000000    0.00000001   -0.00000000

     Total force =     0.000084     Total SCF correction =     0.000000


     Computing stress (Cartesian axis) and pressure

          total   stress  (Ry/bohr**3)                   (kbar)     P=        9.28
   0.00011191  -0.00000000   0.00000000           16.46       -0.00        0.00
  -0.00000000   0.00010492   0.00000000           -0.00       15.43        0.00
   0.00000000   0.00000000  -0.00002761            0.00        0.00       -4.06

     kinetic stress (kbar)   9365.60      0.00      0.00
                                0.00   9364.02     -0.00
                                0.00      0.00  10537.15

     local   stress (kbar) -26803.79     -0.00     -0.00
                               -0.00 -26808.72     -0.00
                               -0.00     -0.00  27123.66

     nonloc. stress (kbar)   1759.81     -0.00      0.00
                               -0.00   1759.91      0.00
                                0.00      0.00   1614.57

     hartree stress (kbar)   9950.54     -0.00      0.00
                               -0.00   9951.36      0.00
                                0.00      0.00  -9114.40

     exc-cor stress (kbar)   -166.04      0.00      0.00
                                0.00   -166.00      0.00
                                0.00      0.00   -271.06

     corecor stress (kbar)  -2238.50     -0.00     -0.00
                               -0.00  -2238.53     -0.00
                               -0.00     -0.00  -2198.39

     ewald   stress (kbar)   8148.85     -0.00     -0.00
                               -0.00   8153.39      0.00
                               -0.00      0.00 -27695.59

     hubbard stress (kbar)      0.00      0.00      0.00
                                0.00      0.00      0.00
                                0.00      0.00      0.00

     DFT-D   stress (kbar)      0.00      0.00      0.00
                                0.00      0.00      0.00
                                0.00      0.00      0.00

     XDM     stress (kbar)      0.00      0.00      0.00
                                0.00      0.00      0.00
                                0.00      0.00      0.00

     dft-nl  stress (kbar)      0.00      0.00      0.00
                                0.00      0.00      0.00
                                0.00      0.00      0.00

     TS-vdW  stress (kbar)      0.00      0.00      0.00
                                0.00      0.00      0.00
                                0.00      0.00      0.00



     Writing output data file ./tmp/C.save/

     init_run     :      1.03s CPU      1.08s WALL (       1 calls)
     electrons    :      4.26s CPU      4.34s WALL (       1 calls)
     forces       :      0.61s CPU      0.62s WALL (       1 calls)
     stress       :      1.07s CPU      1.08s WALL (       1 calls)

     Called by init_run:
     wfcinit      :      0.09s CPU      0.09s WALL (       1 calls)
     wfcinit:atom :      0.00s CPU      0.00s WALL (       4 calls)
     wfcinit:wfcr :      0.07s CPU      0.07s WALL (       4 calls)
     potinit      :      0.26s CPU      0.28s WALL (       1 calls)
     hinit0       :      0.60s CPU      0.61s WALL (       1 calls)

     Called by electrons:
     c_bands      :      1.51s CPU      1.54s WALL (       8 calls)
     sum_band     :      0.94s CPU      0.97s WALL (       8 calls)
     v_of_rho     :      1.40s CPU      1.42s WALL (       9 calls)
     v_h          :      0.07s CPU      0.07s WALL (       9 calls)
     v_xc         :      1.61s CPU      1.63s WALL (      11 calls)
     newd         :      0.42s CPU      0.44s WALL (       9 calls)
     mix_rho      :      0.12s CPU      0.12s WALL (       8 calls)

     Called by c_bands:
     init_us_2    :      0.07s CPU      0.08s WALL (      76 calls)
     cegterg      :      1.41s CPU      1.43s WALL (      32 calls)

     Called by sum_band:
     sum_band:wei :      0.00s CPU      0.00s WALL (       8 calls)
     sum_band:loo :      0.26s CPU      0.26s WALL (       8 calls)
     sum_band:buf :      0.00s CPU      0.00s WALL (      32 calls)
     sum_band:ini :      0.03s CPU      0.03s WALL (      32 calls)
     sum_band:cal :      0.02s CPU      0.02s WALL (      32 calls)
     sum_band:bec :      0.00s CPU      0.00s WALL (      32 calls)
     addusdens    :      0.34s CPU      0.37s WALL (       8 calls)
     addusd:skk   :      0.01s CPU      0.01s WALL (       8 calls)
     addusd:dgemm :      0.08s CPU      0.10s WALL (       8 calls)
     addusd:qvan2 :      0.15s CPU      0.15s WALL (       8 calls)

     Called by *egterg:
     cdiaghg      :      0.05s CPU      0.05s WALL (     131 calls)
     cegterg:over :      0.07s CPU      0.07s WALL (      99 calls)
     cegterg:upda :      0.04s CPU      0.04s WALL (      99 calls)
     cegterg:last :      0.08s CPU      0.08s WALL (      66 calls)
     h_psi        :      1.12s CPU      1.13s WALL (     135 calls)
     s_psi        :      0.07s CPU      0.07s WALL (     135 calls)
     g_psi        :      0.01s CPU      0.01s WALL (      99 calls)

     Called by h_psi:
     h_psi:calbec :      0.07s CPU      0.07s WALL (     135 calls)
     vloc_psi     :      0.96s CPU      0.98s WALL (     135 calls)
     add_vuspsi   :      0.07s CPU      0.07s WALL (     135 calls)

     General routines
     calbec       :      0.10s CPU      0.11s WALL (     187 calls)
     fft          :      0.86s CPU      0.88s WALL (     140 calls)
     ffts         :      0.02s CPU      0.02s WALL (      17 calls)
     fftw         :      0.92s CPU      0.94s WALL (    2474 calls)
     interpolate  :      0.07s CPU      0.08s WALL (       9 calls)

     Parallel routines

     PWSCF        :      7.09s CPU      7.25s WALL


   This run was terminated on:  17:14:38  23May2022            

=------------------------------------------------------------------------------=
   JOB DONE.
=------------------------------------------------------------------------------=
