
     Program PWSCF v.6.7MaX starts on 23May2022 at 17:18: 5 

     This program is part of the open-source Quantum ESPRESSO suite
     for quantum simulation of materials; please cite
         "P. Giannozzi et al., J. Phys.:Condens. Matter 21 395502 (2009);
         "P. Giannozzi et al., J. Phys.:Condens. Matter 29 465901 (2017);
          URL http://www.quantum-espresso.org", 
     in publications or presentations arising from this work. More details at
     http://www.quantum-espresso.org/quote

     Parallel version (MPI), running on     1 processors

     MPI processes distributed on     1 nodes
     Waiting for input...
     Reading input from standard input

     Current dimensions of program PWSCF are:
     Max number of different atomic species (ntypx) = 10
     Max number of k-points (npk) =  40000
     Max angular momentum in pseudopotentials (lmaxx) =  3

     Subspace diagonalization in iterative solution of the eigenvalue problem:
     a serial algorithm will be used


     G-vector sticks info
     --------------------
     sticks:   dense  smooth     PW     G-vecs:    dense   smooth      PW
     Sum         547     265     85                34301    12031    2173



     bravais-lattice index     =            4
     lattice parameter (alat)  =       4.6676  a.u.
     unit-cell volume          =     297.0066 (a.u.)^3
     number of atoms/cell      =            4
     number of atomic types    =            1
     number of electrons       =        16.00
     number of Kohn-Sham states=           12
     kinetic-energy cutoff     =      45.0000  Ry
     charge density cutoff     =     360.0000  Ry
     scf convergence threshold =      1.0E-09
     mixing beta               =       0.7000
     number of iterations used =            8  plain     mixing
     Exchange-correlation= PBE
                           (   1   4   3   4   0   0   0)

     celldm(1)=   4.667624  celldm(2)=   1.000000  celldm(3)=   3.372470
     celldm(4)=   0.000000  celldm(5)=   0.000000  celldm(6)=   0.000000

     crystal axes: (cart. coord. in units of alat)
               a(1) = (   1.000000   0.000000   0.000000 )  
               a(2) = (  -0.500000   0.866025   0.000000 )  
               a(3) = (   0.000000   0.000000   3.372470 )  

     reciprocal axes: (cart. coord. in units 2 pi/alat)
               b(1) = (  1.000000  0.577350 -0.000000 )  
               b(2) = (  0.000000  1.154701  0.000000 )  
               b(3) = (  0.000000 -0.000000  0.296519 )  


     PseudoPot. # 1 for C  read from file:
     /home/max/Desktop/graphite_DFT/Pseudo/C.pbe-n-rrkjus_psl.1.0.0.UPF
     MD5 check sum: 1fdd950c42eb37d8afe3dd2f8d12311e
     Pseudo is Ultrasoft + core correction, Zval =  4.0
     Generated using &quot;atomic&quot; code by A. Dal Corso  v.6.3MaX
     Using radial grid of 1073 points,  4 beta functions with: 
                l(1) =   0
                l(2) =   0
                l(3) =   1
                l(4) =   1
     Q(r) pseudized with 0 coefficients 


     atomic species   valence    mass     pseudopotential
        C              4.00    12.01100     C ( 1.00)

      8 Sym. Ops., with inversion, found ( 4 have fractional translation)


                                    s                        frac. trans.

      isym =  1     identity                                     

 cryst.   s( 1) = (     1          0          0      )
                  (     0          1          0      )
                  (     0          0          1      )

 cart.    s( 1) = (  1.0000000  0.0000000  0.0000000 )
                  (  0.0000000  1.0000000  0.0000000 )
                  (  0.0000000  0.0000000  1.0000000 )


      isym =  2     180 deg rotation - cart. axis [0,0,1]        

 cryst.   s( 2) = (    -1          0          0      )    f =(  0.0000000 )
                  (     0         -1          0      )       (  0.0000000 )
                  (     0          0          1      )       ( -0.5000000 )

 cart.    s( 2) = ( -1.0000000  0.0000000  0.0000000 )    f =(  0.0000000 )
                  (  0.0000000 -1.0000000  0.0000000 )       (  0.0000000 )
                  (  0.0000000  0.0000000  1.0000000 )       ( -1.6862348 )


      isym =  3     180 deg rotation - cart. axis [0,1,0]        

 cryst.   s( 3) = (    -1          0          0      )    f =(  0.0000000 )
                  (     1          1          0      )       (  0.0000000 )
                  (     0          0         -1      )       (  0.5000000 )

 cart.    s( 3) = ( -1.0000000  0.0000000  0.0000000 )    f =(  0.0000000 )
                  (  0.0000000  1.0000000  0.0000000 )       (  0.0000000 )
                  (  0.0000000  0.0000000 -1.0000000 )       (  1.6862348 )


      isym =  4     180 deg rotation - cart. axis [1,0,0]        

 cryst.   s( 4) = (     1          0          0      )
                  (    -1         -1          0      )
                  (     0          0         -1      )

 cart.    s( 4) = (  1.0000000  0.0000000  0.0000000 )
                  (  0.0000000 -1.0000000  0.0000000 )
                  (  0.0000000  0.0000000 -1.0000000 )


      isym =  5     inversion                                    

 cryst.   s( 5) = (    -1          0          0      )
                  (     0         -1          0      )
                  (     0          0         -1      )

 cart.    s( 5) = ( -1.0000000  0.0000000  0.0000000 )
                  (  0.0000000 -1.0000000  0.0000000 )
                  (  0.0000000  0.0000000 -1.0000000 )


      isym =  6     inv. 180 deg rotation - cart. axis [0,0,1]   

 cryst.   s( 6) = (     1          0          0      )    f =(  0.0000000 )
                  (     0          1          0      )       (  0.0000000 )
                  (     0          0         -1      )       (  0.5000000 )

 cart.    s( 6) = (  1.0000000  0.0000000  0.0000000 )    f =(  0.0000000 )
                  (  0.0000000  1.0000000  0.0000000 )       (  0.0000000 )
                  (  0.0000000  0.0000000 -1.0000000 )       (  1.6862348 )


      isym =  7     inv. 180 deg rotation - cart. axis [0,1,0]   

 cryst.   s( 7) = (     1          0          0      )    f =(  0.0000000 )
                  (    -1         -1          0      )       (  0.0000000 )
                  (     0          0          1      )       ( -0.5000000 )

 cart.    s( 7) = (  1.0000000  0.0000000  0.0000000 )    f =(  0.0000000 )
                  (  0.0000000 -1.0000000  0.0000000 )       (  0.0000000 )
                  (  0.0000000  0.0000000  1.0000000 )       ( -1.6862348 )


      isym =  8     inv. 180 deg rotation - cart. axis [1,0,0]   

 cryst.   s( 8) = (    -1          0          0      )
                  (     1          1          0      )
                  (     0          0          1      )

 cart.    s( 8) = ( -1.0000000  0.0000000  0.0000000 )
                  (  0.0000000  1.0000000  0.0000000 )
                  (  0.0000000  0.0000000  1.0000000 )


     point group D_2h (mmm) 
     there are  8 classes
     the character table:

       E     C2    C2'   C2''  i     s_v   s_v'  s_v''
A_g    1.00  1.00  1.00  1.00  1.00  1.00  1.00  1.00
B_1g   1.00  1.00 -1.00 -1.00  1.00  1.00 -1.00 -1.00
B_2g   1.00 -1.00  1.00 -1.00  1.00 -1.00  1.00 -1.00
B_3g   1.00 -1.00 -1.00  1.00  1.00 -1.00 -1.00  1.00
A_u    1.00  1.00  1.00  1.00 -1.00 -1.00 -1.00 -1.00
B_1u   1.00  1.00 -1.00 -1.00 -1.00 -1.00  1.00  1.00
B_2u   1.00 -1.00  1.00 -1.00 -1.00  1.00 -1.00  1.00
B_3u   1.00 -1.00 -1.00  1.00 -1.00  1.00  1.00 -1.00

     the symmetry operations in each class and the name of the first element:

     E        1
          identity                                               
     C2       2
          180 deg rotation - cart. axis [0,0,1]                  
     C2'      4
          180 deg rotation - cart. axis [1,0,0]                  
     C2''     3
          180 deg rotation - cart. axis [0,1,0]                  
     i        5
          inversion                                              
     s_v      6
          inv. 180 deg rotation - cart. axis [0,0,1]             
     s_v'     8
          inv. 180 deg rotation - cart. axis [1,0,0]             
     s_v''    7
          inv. 180 deg rotation - cart. axis [0,1,0]             

   Cartesian axes

     site n.     atom                  positions (alat units)
         1           C   tau(   1) = (   0.0000000   0.0000000   0.8431174  )
         2           C   tau(   2) = (   0.0000000   0.0000000   2.5293522  )
         3           C   tau(   3) = (   0.0000000   0.5772925   0.8431174  )
         4           C   tau(   4) = (   0.5000000   0.2887329   2.5293522  )

   Crystallographic axes

     site n.     atom                  positions (cryst. coord.)
         1           C   tau(   1) = (  0.0000000  0.0000000  0.2500000  )
         2           C   tau(   2) = (  0.0000000  0.0000000  0.7500000  )
         3           C   tau(   3) = (  0.3333000  0.6666000  0.2500000  )
         4           C   tau(   4) = (  0.6667000  0.3334000  0.7500000  )

     number of k points=    72  Methfessel-Paxton smearing, width (Ry)=  0.0300
                       cart. coord. in units 2pi/alat
        k(    1) = (   0.0000000   0.0000000   0.0000000), wk =   0.0055096
        k(    2) = (   0.0000000   0.0000000   0.0988395), wk =   0.0110193
        k(    3) = (   0.0000000   0.1049728   0.0000000), wk =   0.0110193
        k(    4) = (   0.0000000   0.1049728   0.0988395), wk =   0.0220386
        k(    5) = (   0.0000000   0.2099456   0.0000000), wk =   0.0110193
        k(    6) = (   0.0000000   0.2099456   0.0988395), wk =   0.0220386
        k(    7) = (   0.0000000   0.3149183   0.0000000), wk =   0.0110193
        k(    8) = (   0.0000000   0.3149183   0.0988395), wk =   0.0220386
        k(    9) = (   0.0000000   0.4198911   0.0000000), wk =   0.0110193
        k(   10) = (   0.0000000   0.4198911   0.0988395), wk =   0.0220386
        k(   11) = (   0.0000000   0.5248639   0.0000000), wk =   0.0110193
        k(   12) = (   0.0000000   0.5248639   0.0988395), wk =   0.0220386
        k(   13) = (   0.0909091   0.1574592   0.0000000), wk =   0.0220386
        k(   14) = (   0.0909091   0.1574592   0.0988395), wk =   0.0440771
        k(   15) = (   0.0909091   0.2624319   0.0000000), wk =   0.0220386
        k(   16) = (   0.0909091   0.2624319   0.0988395), wk =   0.0440771
        k(   17) = (   0.0909091   0.3674047   0.0000000), wk =   0.0220386
        k(   18) = (   0.0909091   0.3674047   0.0988395), wk =   0.0440771
        k(   19) = (   0.0909091   0.4723775   0.0000000), wk =   0.0220386
        k(   20) = (   0.0909091   0.4723775   0.0988395), wk =   0.0440771
        k(   21) = (   0.0909091   0.5773503   0.0000000), wk =   0.0110193
        k(   22) = (   0.0909091   0.5773503   0.0988395), wk =   0.0220386
        k(   23) = (   0.1818182   0.3149183   0.0000000), wk =   0.0220386
        k(   24) = (   0.1818182   0.3149183   0.0988395), wk =   0.0440771
        k(   25) = (   0.1818182   0.4198911   0.0000000), wk =   0.0220386
        k(   26) = (   0.1818182   0.4198911   0.0988395), wk =   0.0440771
        k(   27) = (   0.1818182   0.5248639   0.0000000), wk =   0.0220386
        k(   28) = (   0.1818182   0.5248639   0.0988395), wk =   0.0440771
        k(   29) = (   0.2727273   0.4723775   0.0000000), wk =   0.0220386
        k(   30) = (   0.2727273   0.4723775   0.0988395), wk =   0.0440771
        k(   31) = (   0.2727273   0.5773503   0.0000000), wk =   0.0110193
        k(   32) = (   0.2727273   0.5773503   0.0988395), wk =   0.0220386
        k(   33) = (  -0.0909091  -0.0524864   0.0000000), wk =   0.0220386
        k(   34) = (  -0.0909091  -0.0524864  -0.0988395), wk =   0.0440771
        k(   35) = (  -0.1818182  -0.1049728   0.0000000), wk =   0.0220386
        k(   36) = (  -0.1818182  -0.1049728  -0.0988395), wk =   0.0440771
        k(   37) = (  -0.2727273  -0.1574592   0.0000000), wk =   0.0220386
        k(   38) = (  -0.2727273  -0.1574592  -0.0988395), wk =   0.0440771
        k(   39) = (  -0.3636364  -0.2099456   0.0000000), wk =   0.0220386
        k(   40) = (  -0.3636364  -0.2099456  -0.0988395), wk =   0.0440771
        k(   41) = (  -0.4545455  -0.2624319   0.0000000), wk =   0.0220386
        k(   42) = (  -0.4545455  -0.2624319  -0.0988395), wk =   0.0440771
        k(   43) = (   0.1818182  -0.0000000   0.0000000), wk =   0.0110193
        k(   44) = (   0.1818182  -0.0000000  -0.0988395), wk =   0.0220386
        k(   45) = (  -0.1818182  -0.2099456   0.0000000), wk =   0.0220386
        k(   46) = (   0.2727273  -0.0524864   0.0000000), wk =   0.0220386
        k(   47) = (  -0.1818182  -0.2099456  -0.0988395), wk =   0.0440771
        k(   48) = (   0.2727273  -0.0524864  -0.0988395), wk =   0.0440771
        k(   49) = (  -0.2727273  -0.2624319   0.0000000), wk =   0.0220386
        k(   50) = (   0.3636364  -0.1049728   0.0000000), wk =   0.0220386
        k(   51) = (  -0.2727273  -0.2624319  -0.0988395), wk =   0.0440771
        k(   52) = (   0.3636364  -0.1049728  -0.0988395), wk =   0.0440771
        k(   53) = (  -0.3636364  -0.3149183   0.0000000), wk =   0.0220386
        k(   54) = (   0.4545455  -0.1574592   0.0000000), wk =   0.0220386
        k(   55) = (  -0.3636364  -0.3149183  -0.0988395), wk =   0.0440771
        k(   56) = (   0.4545455  -0.1574592  -0.0988395), wk =   0.0440771
        k(   57) = (  -0.4545455  -0.3674047   0.0000000), wk =   0.0220386
        k(   58) = (  -0.4545455  -0.3674047  -0.0988395), wk =   0.0440771
        k(   59) = (   0.3636364  -0.0000000   0.0000000), wk =   0.0110193
        k(   60) = (   0.3636364  -0.0000000  -0.0988395), wk =   0.0220386
        k(   61) = (  -0.2727273  -0.3674047   0.0000000), wk =   0.0220386
        k(   62) = (   0.4545455  -0.0524864   0.0000000), wk =   0.0220386
        k(   63) = (  -0.2727273  -0.3674047  -0.0988395), wk =   0.0440771
        k(   64) = (   0.4545455  -0.0524864  -0.0988395), wk =   0.0440771
        k(   65) = (  -0.3636364  -0.4198911   0.0000000), wk =   0.0220386
        k(   66) = (   0.5454545  -0.1049728   0.0000000), wk =   0.0220386
        k(   67) = (  -0.3636364  -0.4198911  -0.0988395), wk =   0.0440771
        k(   68) = (   0.5454545  -0.1049728  -0.0988395), wk =   0.0440771
        k(   69) = (   0.5454545   0.0000000   0.0000000), wk =   0.0110193
        k(   70) = (   0.5454545   0.0000000  -0.0988395), wk =   0.0220386
        k(   71) = (  -0.3636364  -0.5248639   0.0000000), wk =   0.0220386
        k(   72) = (  -0.3636364  -0.5248639  -0.0988395), wk =   0.0440771

                       cryst. coord.
        k(    1) = (   0.0000000   0.0000000   0.0000000), wk =   0.0055096
        k(    2) = (   0.0000000   0.0000000   0.3333333), wk =   0.0110193
        k(    3) = (   0.0000000   0.0909091   0.0000000), wk =   0.0110193
        k(    4) = (   0.0000000   0.0909091   0.3333333), wk =   0.0220386
        k(    5) = (   0.0000000   0.1818182   0.0000000), wk =   0.0110193
        k(    6) = (   0.0000000   0.1818182   0.3333333), wk =   0.0220386
        k(    7) = (   0.0000000   0.2727273   0.0000000), wk =   0.0110193
        k(    8) = (   0.0000000   0.2727273   0.3333333), wk =   0.0220386
        k(    9) = (   0.0000000   0.3636364   0.0000000), wk =   0.0110193
        k(   10) = (   0.0000000   0.3636364   0.3333333), wk =   0.0220386
        k(   11) = (   0.0000000   0.4545455   0.0000000), wk =   0.0110193
        k(   12) = (   0.0000000   0.4545455   0.3333333), wk =   0.0220386
        k(   13) = (   0.0909091   0.0909091   0.0000000), wk =   0.0220386
        k(   14) = (   0.0909091   0.0909091   0.3333333), wk =   0.0440771
        k(   15) = (   0.0909091   0.1818182   0.0000000), wk =   0.0220386
        k(   16) = (   0.0909091   0.1818182   0.3333333), wk =   0.0440771
        k(   17) = (   0.0909091   0.2727273   0.0000000), wk =   0.0220386
        k(   18) = (   0.0909091   0.2727273   0.3333333), wk =   0.0440771
        k(   19) = (   0.0909091   0.3636364   0.0000000), wk =   0.0220386
        k(   20) = (   0.0909091   0.3636364   0.3333333), wk =   0.0440771
        k(   21) = (   0.0909091   0.4545455   0.0000000), wk =   0.0110193
        k(   22) = (   0.0909091   0.4545455   0.3333333), wk =   0.0220386
        k(   23) = (   0.1818182   0.1818182   0.0000000), wk =   0.0220386
        k(   24) = (   0.1818182   0.1818182   0.3333333), wk =   0.0440771
        k(   25) = (   0.1818182   0.2727273   0.0000000), wk =   0.0220386
        k(   26) = (   0.1818182   0.2727273   0.3333333), wk =   0.0440771
        k(   27) = (   0.1818182   0.3636364   0.0000000), wk =   0.0220386
        k(   28) = (   0.1818182   0.3636364   0.3333333), wk =   0.0440771
        k(   29) = (   0.2727273   0.2727273   0.0000000), wk =   0.0220386
        k(   30) = (   0.2727273   0.2727273   0.3333333), wk =   0.0440771
        k(   31) = (   0.2727273   0.3636364   0.0000000), wk =   0.0110193
        k(   32) = (   0.2727273   0.3636364   0.3333333), wk =   0.0220386
        k(   33) = (  -0.0909091  -0.0000000   0.0000000), wk =   0.0220386
        k(   34) = (  -0.0909091  -0.0000000  -0.3333333), wk =   0.0440771
        k(   35) = (  -0.1818182  -0.0000000   0.0000000), wk =   0.0220386
        k(   36) = (  -0.1818182  -0.0000000  -0.3333333), wk =   0.0440771
        k(   37) = (  -0.2727273   0.0000000   0.0000000), wk =   0.0220386
        k(   38) = (  -0.2727273   0.0000000  -0.3333333), wk =   0.0440771
        k(   39) = (  -0.3636364  -0.0000000   0.0000000), wk =   0.0220386
        k(   40) = (  -0.3636364  -0.0000000  -0.3333333), wk =   0.0440771
        k(   41) = (  -0.4545455  -0.0000000   0.0000000), wk =   0.0220386
        k(   42) = (  -0.4545455  -0.0000000  -0.3333333), wk =   0.0440771
        k(   43) = (   0.1818182  -0.0909091   0.0000000), wk =   0.0110193
        k(   44) = (   0.1818182  -0.0909091  -0.3333333), wk =   0.0220386
        k(   45) = (  -0.1818182  -0.0909091   0.0000000), wk =   0.0220386
        k(   46) = (   0.2727273  -0.1818182   0.0000000), wk =   0.0220386
        k(   47) = (  -0.1818182  -0.0909091  -0.3333333), wk =   0.0440771
        k(   48) = (   0.2727273  -0.1818182  -0.3333333), wk =   0.0440771
        k(   49) = (  -0.2727273  -0.0909091   0.0000000), wk =   0.0220386
        k(   50) = (   0.3636364  -0.2727273   0.0000000), wk =   0.0220386
        k(   51) = (  -0.2727273  -0.0909091  -0.3333333), wk =   0.0440771
        k(   52) = (   0.3636364  -0.2727273  -0.3333333), wk =   0.0440771
        k(   53) = (  -0.3636364  -0.0909091   0.0000000), wk =   0.0220386
        k(   54) = (   0.4545455  -0.3636364   0.0000000), wk =   0.0220386
        k(   55) = (  -0.3636364  -0.0909091  -0.3333333), wk =   0.0440771
        k(   56) = (   0.4545455  -0.3636364  -0.3333333), wk =   0.0440771
        k(   57) = (  -0.4545455  -0.0909091   0.0000000), wk =   0.0220386
        k(   58) = (  -0.4545455  -0.0909091  -0.3333333), wk =   0.0440771
        k(   59) = (   0.3636364  -0.1818182   0.0000000), wk =   0.0110193
        k(   60) = (   0.3636364  -0.1818182  -0.3333333), wk =   0.0220386
        k(   61) = (  -0.2727273  -0.1818182   0.0000000), wk =   0.0220386
        k(   62) = (   0.4545455  -0.2727273   0.0000000), wk =   0.0220386
        k(   63) = (  -0.2727273  -0.1818182  -0.3333333), wk =   0.0440771
        k(   64) = (   0.4545455  -0.2727273  -0.3333333), wk =   0.0440771
        k(   65) = (  -0.3636364  -0.1818182   0.0000000), wk =   0.0220386
        k(   66) = (   0.5454545  -0.3636364   0.0000000), wk =   0.0220386
        k(   67) = (  -0.3636364  -0.1818182  -0.3333333), wk =   0.0440771
        k(   68) = (   0.5454545  -0.3636364  -0.3333333), wk =   0.0440771
        k(   69) = (   0.5454545  -0.2727273   0.0000000), wk =   0.0110193
        k(   70) = (   0.5454545  -0.2727273  -0.3333333), wk =   0.0220386
        k(   71) = (  -0.3636364  -0.2727273   0.0000000), wk =   0.0220386
        k(   72) = (  -0.3636364  -0.2727273  -0.3333333), wk =   0.0440771

     Dense  grid:    34301 G-vectors     FFT dimensions: (  30,  30,  96)

     Smooth grid:    12031 G-vectors     FFT dimensions: (  20,  20,  72)

     Dynamical RAM for                 wfc:       0.28 MB

     Dynamical RAM for     wfc (w. buffer):      20.24 MB

     Dynamical RAM for           str. fact:       0.52 MB

     Dynamical RAM for           local pot:       0.00 MB

     Dynamical RAM for          nlocal pot:       0.74 MB

     Dynamical RAM for                qrad:       0.44 MB

     Dynamical RAM for          rho,v,vnew:       3.55 MB

     Dynamical RAM for               rhoin:       1.18 MB

     Dynamical RAM for            rho*nmix:       8.37 MB

     Dynamical RAM for           G-vectors:       2.05 MB

     Dynamical RAM for          h,s,v(r/c):       0.03 MB

     Dynamical RAM for          <psi|beta>:       0.01 MB

     Dynamical RAM for                 psi:       0.55 MB

     Dynamical RAM for                hpsi:       0.55 MB

     Dynamical RAM for                spsi:       0.55 MB

     Dynamical RAM for      wfcinit/wfcrot:       0.75 MB

     Dynamical RAM for           addusdens:      24.60 MB

     Dynamical RAM for          addusforce:      28.00 MB

     Dynamical RAM for         addusstress:      26.17 MB

     Estimated static dynamical RAM per process >      41.44 MB

     Estimated max dynamical RAM per process >      69.44 MB

     Check: negative core charge=   -0.000010

     Initial potential from superposition of free atoms

     starting charge   15.99983, renormalised to   16.00000
     Starting wfcs are   16 randomized atomic wfcs

     total cpu time spent up to now is        3.2 secs

     Self-consistent Calculation

     iteration #  1     ecut=    45.00 Ry     beta= 0.70
     Davidson diagonalization with overlap
     ethr =  1.00E-02,  avg # of iterations =  2.8

     total cpu time spent up to now is        8.0 secs

     total energy              =     -49.66295246 Ry
     estimated scf accuracy    <       0.37700984 Ry

     iteration #  2     ecut=    45.00 Ry     beta= 0.70
     Davidson diagonalization with overlap
     ethr =  2.36E-03,  avg # of iterations =  2.4

     total cpu time spent up to now is       12.5 secs

     total energy              =     -49.71399560 Ry
     estimated scf accuracy    <       0.00435536 Ry

     iteration #  3     ecut=    45.00 Ry     beta= 0.70
     Davidson diagonalization with overlap
     ethr =  2.72E-05,  avg # of iterations =  8.0

     total cpu time spent up to now is       18.1 secs

     total energy              =     -49.71436082 Ry
     estimated scf accuracy    <       0.00031240 Ry

     iteration #  4     ecut=    45.00 Ry     beta= 0.70
     Davidson diagonalization with overlap
     ethr =  1.95E-06,  avg # of iterations =  3.4

     total cpu time spent up to now is       22.0 secs

     total energy              =     -49.71437833 Ry
     estimated scf accuracy    <       0.00000204 Ry

     iteration #  5     ecut=    45.00 Ry     beta= 0.70
     Davidson diagonalization with overlap
     ethr =  1.27E-08,  avg # of iterations =  2.9

     total cpu time spent up to now is       26.5 secs

     total energy              =     -49.71437947 Ry
     estimated scf accuracy    <       0.00000011 Ry

     iteration #  6     ecut=    45.00 Ry     beta= 0.70
     Davidson diagonalization with overlap
     ethr =  7.06E-10,  avg # of iterations =  2.1

     total cpu time spent up to now is       30.5 secs

     total energy              =     -49.71437950 Ry
     estimated scf accuracy    <       0.00000002 Ry

     iteration #  7     ecut=    45.00 Ry     beta= 0.70
     Davidson diagonalization with overlap
     ethr =  1.47E-10,  avg # of iterations =  2.0

     total cpu time spent up to now is       35.1 secs

     End of self-consistent calculation

          k = 0.0000 0.0000 0.0000 (  1497 PWs)   bands (ev):

   -14.7001 -14.6548  -3.0621  -2.4981   1.7289   1.7304   1.7332   1.7347
     7.9711  13.0932  13.0988  13.0998

     occupation numbers 
     1.0000   1.0000   1.0000   1.0000   1.0000   1.0000   1.0000   1.0000
    -0.0000  -0.0000  -0.0000  -0.0000

          k = 0.0000 0.0000 0.0988 (  1462 PWs)   bands (ev):

   -14.6887 -14.6662  -2.9307  -2.6496   1.7293   1.7301   1.7336   1.7344
     8.6047  10.2122  13.0951  13.1004

     occupation numbers 
     1.0000   1.0000   1.0000   1.0000   1.0000   1.0000   1.0000   1.0000
    -0.0000  -0.0000  -0.0000  -0.0000

          k = 0.0000 0.1050 0.0000 (  1493 PWs)   bands (ev):

   -14.5054 -14.4609  -2.8272  -2.2689   0.9637   0.9671   1.3368   1.3394
     8.2240  11.7220  13.1541  13.1819

     occupation numbers 
     1.0000   1.0000   1.0000   1.0000   1.0000   1.0000   1.0000   1.0000
    -0.0000  -0.0000  -0.0000  -0.0000

          k = 0.0000 0.1050 0.0988 (  1491 PWs)   bands (ev):

   -14.4944 -14.4721  -2.6971  -2.4188   0.9646   0.9663   1.3375   1.3388
     8.8536  10.4509  13.1700  13.1788

     occupation numbers 
     1.0000   1.0000   1.0000   1.0000   1.0000   1.0000   1.0000   1.0000
    -0.0000  -0.0000  -0.0000  -0.0000

          k = 0.0000 0.2099 0.0000 (  1499 PWs)   bands (ev):

   -13.9243 -13.8818  -2.1296  -1.5895  -0.9128  -0.9053   0.4441   0.4480
     8.9831  12.3867  13.0344  13.0926

     occupation numbers 
     1.0000   1.0000   1.0000   1.0000   1.0000   1.0000   1.0000   1.0000
    -0.0000  -0.0000  -0.0000  -0.0000

          k = 0.0000 0.2099 0.0988 (  1503 PWs)   bands (ev):

   -13.9138 -13.8925  -2.0035  -1.7342  -0.9110  -0.9072   0.4451   0.4470
     9.5989  11.1563  13.0688  13.0868

     occupation numbers 
     1.0000   1.0000   1.0000   1.0000   1.0000   1.0000   1.0000   1.0000
    -0.0000  -0.0000  -0.0000  -0.0000

          k = 0.0000 0.3149 0.0000 (  1499 PWs)   bands (ev):

   -12.9651 -12.9258  -3.2454  -3.2326  -0.9965  -0.4914  -0.4909  -0.4868
    10.2431  11.2958  11.4432  12.6924

     occupation numbers 
     1.0000   1.0000   1.0000   1.0000   1.0000   1.0000   1.0000   1.0000
    -0.0000  -0.0000  -0.0000  -0.0000

          k = 0.0000 0.3149 0.0988 (  1502 PWs)   bands (ev):

   -12.9554 -12.9357  -3.2422  -3.2358  -0.8779  -0.6257  -0.4902  -0.4879
    10.7864  11.3254  11.4333  12.3807

     occupation numbers 
     1.0000   1.0000   1.0000   1.0000   1.0000   1.0000   1.0000   1.0000
    -0.0000  -0.0000  -0.0000  -0.0000

          k = 0.0000 0.4199 0.0000 (  1514 PWs)   bands (ev):

   -11.6470 -11.6122  -5.6253  -5.6070  -1.2076  -1.2026   0.4931   0.9340
     8.7593   9.0031  11.9509  12.3549

     occupation numbers 
     1.0000   1.0000   1.0000   1.0000   1.0000   1.0000   1.0000   1.0000
    -0.0000  -0.0000  -0.0000  -0.0000

          k = 0.0000 0.4199 0.0988 (  1511 PWs)   bands (ev):

   -11.6384 -11.6210  -5.6207  -5.6116  -1.2063  -1.2038   0.5976   0.8177
     8.8105   8.9328  12.2927  12.3611

     occupation numbers 
     1.0000   1.0000   1.0000   1.0000   1.0000   1.0000   1.0000   1.0000
    -0.0000  -0.0000  -0.0000  -0.0000

          k = 0.0000 0.5249 0.0000 (  1514 PWs)   bands (ev):

   -10.0452 -10.0172  -7.7921  -7.7702  -1.5876  -1.5824   2.0154   2.2929
     6.7275   6.9911  12.1468  12.2109

     occupation numbers 
     1.0000   1.0000   1.0000   1.0000   1.0000   1.0000   1.0000   1.0000
    -0.0000  -0.0000  -0.0000  -0.0000

          k = 0.0000 0.5249 0.0988 (  1520 PWs)   bands (ev):

   -10.0383 -10.0243  -7.7867  -7.7757  -1.5863  -1.5837   2.0843   2.2231
     6.7809   6.9128  12.1630  12.1950

     occupation numbers 
     1.0000   1.0000   1.0000   1.0000   1.0000   1.0000   1.0000   1.0000
    -0.0000  -0.0000  -0.0000  -0.0000

          k = 0.0909 0.1575 0.0000 (  1501 PWs)   bands (ev):

   -14.1176 -14.0744  -2.3608  -1.8144  -0.2095  -0.2061   0.5445   0.5468
     8.7307  12.1781  13.5022  13.5582

     occupation numbers 
     1.0000   1.0000   1.0000   1.0000   1.0000   1.0000   1.0000   1.0000
    -0.0000  -0.0000  -0.0000  -0.0000

          k = 0.0909 0.1575 0.0988 (  1501 PWs)   bands (ev):

   -14.1069 -14.0853  -2.2333  -1.9609  -0.2086  -0.2069   0.5451   0.5462
     9.3519  10.9264  13.5356  13.5520

     occupation numbers 
     1.0000   1.0000   1.0000   1.0000   1.0000   1.0000   1.0000   1.0000
    -0.0000  -0.0000  -0.0000  -0.0000

          k = 0.0909 0.2624 0.0000 (  1503 PWs)   bands (ev):

   -13.3474 -13.3069  -2.1226  -2.1142  -1.4435  -0.9230  -0.5663  -0.5614
     9.7429  12.2848  12.3629  13.1079

     occupation numbers 
     1.0000   1.0000   1.0000   1.0000   1.0000   1.0000   1.0000   1.0000
    -0.0000  -0.0000  -0.0000  -0.0000

          k = 0.0909 0.2624 0.0988 (  1506 PWs)   bands (ev):

   -13.3374 -13.3171  -2.1205  -2.1163  -1.3216  -1.0620  -0.5651  -0.5627
    10.3421  11.8301  12.3219  12.4031

     occupation numbers 
     1.0000   1.0000   1.0000   1.0000   1.0000   1.0000   1.0000   1.0000
    -0.0000  -0.0000  -0.0000  -0.0000

          k = 0.0909 0.3674 0.0000 (  1519 PWs)   bands (ev):

   -12.2083 -12.1715  -4.3962  -4.3815  -1.4776  -1.4711  -0.1201   0.3538
     9.8880  10.0640  11.2497  13.3387

     occupation numbers 
     1.0000   1.0000   1.0000   1.0000   1.0000   1.0000   1.0000   1.0000
    -0.0000  -0.0000  -0.0000  -0.0000

          k = 0.0909 0.3674 0.0988 (  1507 PWs)   bands (ev):

   -12.1991 -12.1808  -4.3925  -4.3851  -1.4760  -1.4727  -0.0084   0.2281
     9.9225  10.0123  11.8322  13.1672

     occupation numbers 
     1.0000   1.0000   1.0000   1.0000   1.0000   1.0000   1.0000   1.0000
    -0.0000  -0.0000  -0.0000  -0.0000

          k = 0.0909 0.4724 0.0000 (  1522 PWs)   bands (ev):

   -10.7337 -10.7021  -6.6542  -6.6340  -2.0557  -2.0485   1.4641   1.8425
     7.5609   7.8066  13.0196  13.0916

     occupation numbers 
     1.0000   1.0000   1.0000   1.0000   1.0000   1.0000   1.0000   1.0000
    -0.0000  -0.0000  -0.0000  -0.0000

          k = 0.0909 0.4724 0.0988 (  1518 PWs)   bands (ev):

   -10.7259 -10.7101  -6.6492  -6.6390  -2.0539  -2.0503   1.5550   1.7440
     7.6147   7.7377  13.0693  13.1002

     occupation numbers 
     1.0000   1.0000   1.0000   1.0000   1.0000   1.0000   1.0000   1.0000
    -0.0000  -0.0000  -0.0000  -0.0000

          k = 0.0909 0.5774 0.0000 (  1523 PWs)   bands (ev):

    -9.3462  -9.3315  -8.3045  -8.2929  -2.2530  -2.2455   2.5366   2.7083
     6.3384   6.5451  12.9577  13.0376

     occupation numbers 
     1.0000   1.0000   1.0000   1.0000   1.0000   1.0000   1.0000   1.0000
    -0.0000  -0.0000  -0.0000  -0.0000

          k = 0.0909 0.5774 0.0988 (  1521 PWs)   bands (ev):

    -9.3425  -9.3351  -8.3018  -8.2960  -2.2511  -2.2473   2.5818   2.6679
     6.3765   6.4800  12.9773  13.0172

     occupation numbers 
     1.0000   1.0000   1.0000   1.0000   1.0000   1.0000   1.0000   1.0000
    -0.0000  -0.0000  -0.0000  -0.0000

          k = 0.1818 0.3149 0.0000 (  1521 PWs)   bands (ev):

   -12.3971 -12.3598  -3.5245  -3.5179  -2.1034  -2.0985  -0.3291   0.1552
    10.4201  10.5282  11.0040  14.0444

     occupation numbers 
     1.0000   1.0000   1.0000   1.0000   1.0000   1.0000   1.0000   1.0000
    -0.0000  -0.0000  -0.0000  -0.0000

          k = 0.1818 0.3149 0.0988 (  1515 PWs)   bands (ev):

   -12.3879 -12.3692  -3.5228  -3.5195  -2.1022  -2.0997  -0.2152   0.0265
    10.4469  10.5008  11.5709  12.9824

     occupation numbers 
     1.0000   1.0000   1.0000   1.0000   1.0000   1.0000   1.0000   1.0000
    -0.0000  -0.0000  -0.0000  -0.0000

          k = 0.1818 0.4199 0.0000 (  1516 PWs)   bands (ev):

   -11.0964 -11.0634  -5.3780  -5.3638  -3.1836  -3.1743   1.1423   1.5638
     8.3269   8.4821  12.7439  15.2336

     occupation numbers 
     1.0000   1.0000   1.0000   1.0000   1.0000   1.0000   1.0000   1.0000
    -0.0000  -0.0000  -0.0000  -0.0000

          k = 0.1818 0.4199 0.0988 (  1519 PWs)   bands (ev):

   -11.0882 -11.0717  -5.3745  -5.3674  -3.1813  -3.1766   1.2424   1.4529
     8.3642   8.4419  13.2367  14.3934

     occupation numbers 
     1.0000   1.0000   1.0000   1.0000   1.0000   1.0000   1.0000   1.0000
    -0.0000  -0.0000  -0.0000  -0.0000

          k = 0.1818 0.5249 0.0000 (  1529 PWs)   bands (ev):

    -9.5278  -9.5015  -7.3590  -7.3395  -3.6590  -3.6477   2.6928   2.9683
     6.4825   6.6498  14.8669  15.0525

     occupation numbers 
     1.0000   1.0000   1.0000   1.0000   1.0000   1.0000   1.0000   1.0000
    -0.0000  -0.0000  -0.0000  -0.0000

          k = 0.1818 0.5249 0.0988 (  1526 PWs)   bands (ev):

    -9.5213  -9.5081  -7.3541  -7.3444  -3.6562  -3.6505   2.7611   2.8989
     6.5182   6.6022  15.0357  15.0745

     occupation numbers 
     1.0000   1.0000   1.0000   1.0000   1.0000   1.0000   1.0000   1.0000
    -0.0000  -0.0000  -0.0000  -0.0000

          k = 0.2727 0.4724 0.0000 (  1529 PWs)   bands (ev):

    -9.6772  -9.6493  -6.3763  -6.3663  -4.7560  -4.7486   2.6894   3.0286
     6.6765   6.8201  14.6592  15.5112

     occupation numbers 
     1.0000   1.0000   1.0000   1.0000   1.0000   1.0000   1.0000   1.0000
    -0.0000  -0.0000  -0.0000  -0.0000

          k = 0.2727 0.4724 0.0988 (  1535 PWs)   bands (ev):

    -9.6703  -9.6563  -6.3737  -6.3687  -4.7542  -4.7505   2.7711   2.9406
     6.7120   6.7837  14.8441  15.2373

     occupation numbers 
     1.0000   1.0000   1.0000   1.0000   1.0000   1.0000   1.0000   1.0000
    -0.0000  -0.0000  -0.0000  -0.0000

          k = 0.2727 0.5774 0.0000 (  1523 PWs)   bands (ev):

    -8.3483  -8.3353  -7.5775  -7.5741  -5.2902  -5.2791   3.9454   4.1079
     5.5166   5.5629  15.5703  15.7976

     occupation numbers 
     1.0000   1.0000   1.0000   1.0000   1.0000   1.0000   1.0318   0.9551
    -0.0003  -0.0002  -0.0000  -0.0000

          k = 0.2727 0.5774 0.0988 (  1543 PWs)   bands (ev):

    -8.3450  -8.3386  -7.5768  -7.5751  -5.2874  -5.2819   3.9900   4.0717
     5.5218   5.5443  15.3617  15.4140

     occupation numbers 
     1.0000   1.0000   1.0000   1.0000   1.0000   1.0000   1.0224   0.9835
    -0.0003  -0.0002  -0.0000  -0.0000

          k =-0.0909-0.0525 0.0000 (  1493 PWs)   bands (ev):

   -14.5054 -14.4609  -2.8272  -2.2689   0.9665   0.9699   1.3340   1.3366
     8.2240  11.7220  13.1507  13.1785

     occupation numbers 
     1.0000   1.0000   1.0000   1.0000   1.0000   1.0000   1.0000   1.0000
    -0.0000  -0.0000  -0.0000  -0.0000

          k =-0.0909-0.0525-0.0988 (  1491 PWs)   bands (ev):

   -14.4944 -14.4721  -2.6971  -2.4188   0.9674   0.9690   1.3346   1.3359
     8.8536  10.4509  13.1666  13.1755

     occupation numbers 
     1.0000   1.0000   1.0000   1.0000   1.0000   1.0000   1.0000   1.0000
    -0.0000  -0.0000  -0.0000  -0.0000

          k =-0.1818-0.1050 0.0000 (  1499 PWs)   bands (ev):

   -13.9243 -13.8818  -2.1297  -1.5896  -0.9108  -0.9033   0.4418   0.4457
     8.9831  12.3866  13.0324  13.0907

     occupation numbers 
     1.0000   1.0000   1.0000   1.0000   1.0000   1.0000   1.0000   1.0000
    -0.0000  -0.0000  -0.0000  -0.0000

          k =-0.1818-0.1050-0.0988 (  1503 PWs)   bands (ev):

   -13.9137 -13.8925  -2.0035  -1.7342  -0.9090  -0.9052   0.4428   0.4447
     9.5989  11.1562  13.0668  13.0847

     occupation numbers 
     1.0000   1.0000   1.0000   1.0000   1.0000   1.0000   1.0000   1.0000
    -0.0000  -0.0000  -0.0000  -0.0000

          k =-0.2727-0.1575 0.0000 (  1499 PWs)   bands (ev):

   -12.9650 -12.9258  -3.2440  -3.2312  -0.9967  -0.4932  -0.4911  -0.4886
    10.2431  11.2967  11.4440  12.6914

     occupation numbers 
     1.0000   1.0000   1.0000   1.0000   1.0000   1.0000   1.0000   1.0000
    -0.0000  -0.0000  -0.0000  -0.0000

          k =-0.2727-0.1575-0.0988 (  1502 PWs)   bands (ev):

   -12.9553 -12.9357  -3.2408  -3.2344  -0.8781  -0.6259  -0.4921  -0.4898
    10.7863  11.3260  11.4344  12.3802

     occupation numbers 
     1.0000   1.0000   1.0000   1.0000   1.0000   1.0000   1.0000   1.0000
    -0.0000  -0.0000  -0.0000  -0.0000

          k =-0.3636-0.2099 0.0000 (  1514 PWs)   bands (ev):

   -11.6470 -11.6122  -5.6242  -5.6059  -1.2092  -1.2042   0.4926   0.9334
     8.7607   9.0044  11.9508  12.3541

     occupation numbers 
     1.0000   1.0000   1.0000   1.0000   1.0000   1.0000   1.0000   1.0000
    -0.0000  -0.0000  -0.0000  -0.0000

          k =-0.3636-0.2099-0.0988 (  1511 PWs)   bands (ev):

   -11.6383 -11.6209  -5.6196  -5.6105  -1.2079  -1.2054   0.5971   0.8171
     8.8119   8.9341  12.2920  12.3602

     occupation numbers 
     1.0000   1.0000   1.0000   1.0000   1.0000   1.0000   1.0000   1.0000
    -0.0000  -0.0000  -0.0000  -0.0000

          k =-0.4545-0.2624 0.0000 (  1514 PWs)   bands (ev):

   -10.0454 -10.0174  -7.7909  -7.7690  -1.5891  -1.5839   2.0142   2.2916
     6.7296   6.9934  12.1461  12.2102

     occupation numbers 
     1.0000   1.0000   1.0000   1.0000   1.0000   1.0000   1.0000   1.0000
    -0.0000  -0.0000  -0.0000  -0.0000

          k =-0.4545-0.2624-0.0988 (  1520 PWs)   bands (ev):

   -10.0385 -10.0245  -7.7855  -7.7745  -1.5877  -1.5852   2.0831   2.2218
     6.7830   6.9149  12.1623  12.1943

     occupation numbers 
     1.0000   1.0000   1.0000   1.0000   1.0000   1.0000   1.0000   1.0000
    -0.0000  -0.0000  -0.0000  -0.0000

          k = 0.1818-0.0000 0.0000 (  1501 PWs)   bands (ev):

   -14.1176 -14.0744  -2.3609  -1.8145  -0.2068  -0.2035   0.5417   0.5440
     8.7307  12.1780  13.4977  13.5534

     occupation numbers 
     1.0000   1.0000   1.0000   1.0000   1.0000   1.0000   1.0000   1.0000
    -0.0000  -0.0000  -0.0000  -0.0000

          k = 0.1818-0.0000-0.0988 (  1501 PWs)   bands (ev):

   -14.1069 -14.0853  -2.2333  -1.9609  -0.2060  -0.2043   0.5423   0.5434
     9.3518  10.9264  13.5313  13.5477

     occupation numbers 
     1.0000   1.0000   1.0000   1.0000   1.0000   1.0000   1.0000   1.0000
    -0.0000  -0.0000  -0.0000  -0.0000

          k =-0.1818-0.2099 0.0000 (  1503 PWs)   bands (ev):

   -13.3474 -13.3069  -2.1215  -2.1130  -1.4436  -0.9231  -0.5676  -0.5628
     9.7429  12.2851  12.3630  13.1075

     occupation numbers 
     1.0000   1.0000   1.0000   1.0000   1.0000   1.0000   1.0000   1.0000
    -0.0000  -0.0000  -0.0000  -0.0000

          k = 0.2727-0.0525 0.0000 (  1503 PWs)   bands (ev):

   -13.3474 -13.3068  -2.1204  -2.1120  -1.4437  -0.9232  -0.5688  -0.5639
     9.7429  12.2857  12.3636  13.1073

     occupation numbers 
     1.0000   1.0000   1.0000   1.0000   1.0000   1.0000   1.0000   1.0000
    -0.0000  -0.0000  -0.0000  -0.0000

          k =-0.1818-0.2099-0.0988 (  1506 PWs)   bands (ev):

   -13.3374 -13.3171  -2.1194  -2.1152  -1.3217  -1.0621  -0.5664  -0.5640
    10.3420  11.8298  12.3224  12.4037

     occupation numbers 
     1.0000   1.0000   1.0000   1.0000   1.0000   1.0000   1.0000   1.0000
    -0.0000  -0.0000  -0.0000  -0.0000

          k = 0.2727-0.0525-0.0988 (  1506 PWs)   bands (ev):

   -13.3373 -13.3171  -2.1183  -2.1141  -1.3218  -1.0622  -0.5676  -0.5652
    10.3420  11.8298  12.3229  12.4041

     occupation numbers 
     1.0000   1.0000   1.0000   1.0000   1.0000   1.0000   1.0000   1.0000
    -0.0000  -0.0000  -0.0000  -0.0000

          k =-0.2727-0.2624 0.0000 (  1519 PWs)   bands (ev):

   -12.2082 -12.1715  -4.3951  -4.3803  -1.4791  -1.4725  -0.1204   0.3536
     9.8888  10.0648  11.2497  13.3379

     occupation numbers 
     1.0000   1.0000   1.0000   1.0000   1.0000   1.0000   1.0000   1.0000
    -0.0000  -0.0000  -0.0000  -0.0000

          k = 0.3636-0.1050 0.0000 (  1519 PWs)   bands (ev):

   -12.2082 -12.1715  -4.3947  -4.3800  -1.4795  -1.4730  -0.1205   0.3534
     9.8893  10.0653  11.2497  13.3372

     occupation numbers 
     1.0000   1.0000   1.0000   1.0000   1.0000   1.0000   1.0000   1.0000
    -0.0000  -0.0000  -0.0000  -0.0000

          k =-0.2727-0.2624-0.0988 (  1507 PWs)   bands (ev):

   -12.1991 -12.1808  -4.3914  -4.3840  -1.4774  -1.4742  -0.0087   0.2278
     9.9232  10.0131  11.8323  13.1673

     occupation numbers 
     1.0000   1.0000   1.0000   1.0000   1.0000   1.0000   1.0000   1.0000
    -0.0000  -0.0000  -0.0000  -0.0000

          k = 0.3636-0.1050-0.0988 (  1507 PWs)   bands (ev):

   -12.1991 -12.1807  -4.3910  -4.3837  -1.4778  -1.4746  -0.0088   0.2277
     9.9237  10.0136  11.8322  13.1667

     occupation numbers 
     1.0000   1.0000   1.0000   1.0000   1.0000   1.0000   1.0000   1.0000
    -0.0000  -0.0000  -0.0000  -0.0000

          k =-0.3636-0.3149 0.0000 (  1522 PWs)   bands (ev):

   -10.7338 -10.7021  -6.6532  -6.6329  -2.0571  -2.0498   1.4635   1.8417
     7.5624   7.8081  13.0191  13.0909

     occupation numbers 
     1.0000   1.0000   1.0000   1.0000   1.0000   1.0000   1.0000   1.0000
    -0.0000  -0.0000  -0.0000  -0.0000

          k = 0.4545-0.1575 0.0000 (  1522 PWs)   bands (ev):

   -10.7337 -10.7021  -6.6531  -6.6329  -2.0572  -2.0500   1.4633   1.8415
     7.5628   7.8085  13.0187  13.0907

     occupation numbers 
     1.0000   1.0000   1.0000   1.0000   1.0000   1.0000   1.0000   1.0000
    -0.0000  -0.0000  -0.0000  -0.0000

          k =-0.3636-0.3149-0.0988 (  1518 PWs)   bands (ev):

   -10.7259 -10.7101  -6.6481  -6.6380  -2.0553  -2.0517   1.5543   1.7432
     7.6162   7.7392  13.0687  13.0996

     occupation numbers 
     1.0000   1.0000   1.0000   1.0000   1.0000   1.0000   1.0000   1.0000
    -0.0000  -0.0000  -0.0000  -0.0000

          k = 0.4545-0.1575-0.0988 (  1518 PWs)   bands (ev):

   -10.7259 -10.7101  -6.6481  -6.6379  -2.0554  -2.0518   1.5541   1.7431
     7.6165   7.7396  13.0684  13.0993

     occupation numbers 
     1.0000   1.0000   1.0000   1.0000   1.0000   1.0000   1.0000   1.0000
    -0.0000  -0.0000  -0.0000  -0.0000

          k =-0.4545-0.3674 0.0000 (  1523 PWs)   bands (ev):

    -9.3471  -9.3323  -8.3027  -8.2911  -2.2543  -2.2469   2.5350   2.7068
     6.3407   6.5476  12.9570  13.0368

     occupation numbers 
     1.0000   1.0000   1.0000   1.0000   1.0000   1.0000   1.0000   1.0000
    -0.0000  -0.0000  -0.0000  -0.0000

          k =-0.4545-0.3674-0.0988 (  1521 PWs)   bands (ev):

    -9.3433  -9.3360  -8.2999  -8.2941  -2.2525  -2.2487   2.5803   2.6664
     6.3789   6.4825  12.9766  13.0165

     occupation numbers 
     1.0000   1.0000   1.0000   1.0000   1.0000   1.0000   1.0000   1.0000
    -0.0000  -0.0000  -0.0000  -0.0000

          k = 0.3636-0.0000 0.0000 (  1521 PWs)   bands (ev):

   -12.3971 -12.3598  -3.5226  -3.5160  -2.1055  -2.1006  -0.3294   0.1549
    10.4212  10.5292  11.0040  14.0440

     occupation numbers 
     1.0000   1.0000   1.0000   1.0000   1.0000   1.0000   1.0000   1.0000
    -0.0000  -0.0000  -0.0000  -0.0000

          k = 0.3636-0.0000-0.0988 (  1515 PWs)   bands (ev):

   -12.3878 -12.3692  -3.5209  -3.5176  -2.1043  -2.1018  -0.2154   0.0262
    10.4480  10.5019  11.5708  12.9821

     occupation numbers 
     1.0000   1.0000   1.0000   1.0000   1.0000   1.0000   1.0000   1.0000
    -0.0000  -0.0000  -0.0000  -0.0000

          k =-0.2727-0.3674 0.0000 (  1516 PWs)   bands (ev):

   -11.0964 -11.0634  -5.3772  -5.3630  -3.1846  -3.1752   1.1421   1.5636
     8.3275   8.4826  12.7440  15.2329

     occupation numbers 
     1.0000   1.0000   1.0000   1.0000   1.0000   1.0000   1.0000   1.0000
    -0.0000  -0.0000  -0.0000  -0.0000

          k = 0.4545-0.0525 0.0000 (  1516 PWs)   bands (ev):

   -11.0963 -11.0634  -5.3765  -5.3623  -3.1854  -3.1761   1.1418   1.5632
     8.3284   8.4835  12.7439  15.2317

     occupation numbers 
     1.0000   1.0000   1.0000   1.0000   1.0000   1.0000   1.0000   1.0000
    -0.0000  -0.0000  -0.0000  -0.0000

          k =-0.2727-0.3674-0.0988 (  1519 PWs)   bands (ev):

   -11.0882 -11.0717  -5.3737  -5.3665  -3.1822  -3.1776   1.2422   1.4526
     8.3647   8.4424  13.2368  14.3936

     occupation numbers 
     1.0000   1.0000   1.0000   1.0000   1.0000   1.0000   1.0000   1.0000
    -0.0000  -0.0000  -0.0000  -0.0000

          k = 0.4545-0.0525-0.0988 (  1519 PWs)   bands (ev):

   -11.0882 -11.0717  -5.3730  -5.3658  -3.1831  -3.1784   1.2419   1.4523
     8.3656   8.4433  13.2367  14.3930

     occupation numbers 
     1.0000   1.0000   1.0000   1.0000   1.0000   1.0000   1.0000   1.0000
    -0.0000  -0.0000  -0.0000  -0.0000

          k =-0.3636-0.4199 0.0000 (  1529 PWs)   bands (ev):

    -9.5281  -9.5018  -7.3578  -7.3383  -3.6602  -3.6488   2.6919   2.9673
     6.4842   6.6513  14.8673  15.0518

     occupation numbers 
     1.0000   1.0000   1.0000   1.0000   1.0000   1.0000   1.0000   1.0000
    -0.0000  -0.0000  -0.0000  -0.0000

          k = 0.5455-0.1050 0.0000 (  1529 PWs)   bands (ev):

    -9.5281  -9.5018  -7.3576  -7.3381  -3.6604  -3.6490   2.6916   2.9670
     6.4846   6.6519  14.8666  15.0517

     occupation numbers 
     1.0000   1.0000   1.0000   1.0000   1.0000   1.0000   1.0000   1.0000
    -0.0000  -0.0000  -0.0000  -0.0000

          k =-0.3636-0.4199-0.0988 (  1526 PWs)   bands (ev):

    -9.5215  -9.5084  -7.3529  -7.3432  -3.6574  -3.6517   2.7601   2.8979
     6.5198   6.6037  15.0356  15.0741

     occupation numbers 
     1.0000   1.0000   1.0000   1.0000   1.0000   1.0000   1.0000   1.0000
    -0.0000  -0.0000  -0.0000  -0.0000

          k = 0.5455-0.1050-0.0988 (  1526 PWs)   bands (ev):

    -9.5215  -9.5084  -7.3528  -7.3430  -3.6576  -3.6519   2.7598   2.8976
     6.5203   6.6043  15.0348  15.0737

     occupation numbers 
     1.0000   1.0000   1.0000   1.0000   1.0000   1.0000   1.0000   1.0000
    -0.0000  -0.0000  -0.0000  -0.0000

          k = 0.5455 0.0000 0.0000 (  1529 PWs)   bands (ev):

    -9.6773  -9.6493  -6.3749  -6.3649  -4.7574  -4.7501   2.6886   3.0277
     6.6778   6.8214  14.6592  15.5103

     occupation numbers 
     1.0000   1.0000   1.0000   1.0000   1.0000   1.0000   1.0000   1.0000
    -0.0000  -0.0000  -0.0000  -0.0000

          k = 0.5455 0.0000-0.0988 (  1535 PWs)   bands (ev):

    -9.6703  -9.6564  -6.3724  -6.3674  -4.7556  -4.7519   2.7704   2.9398
     6.7133   6.7850  14.8438  15.2365

     occupation numbers 
     1.0000   1.0000   1.0000   1.0000   1.0000   1.0000   1.0000   1.0000
    -0.0000  -0.0000  -0.0000  -0.0000

          k =-0.3636-0.5249 0.0000 (  1523 PWs)   bands (ev):

    -8.3493  -8.3364  -7.5755  -7.5722  -5.2912  -5.2801   3.9440   4.1065
     5.5184   5.5647  15.5694  15.7977

     occupation numbers 
     1.0000   1.0000   1.0000   1.0000   1.0000   1.0000   1.0320   0.9564
    -0.0003  -0.0002  -0.0000  -0.0000

          k =-0.3636-0.5249-0.0988 (  1543 PWs)   bands (ev):

    -8.3461  -8.3396  -7.5748  -7.5732  -5.2884  -5.2829   3.9885   4.0702
     5.5236   5.5461  15.3612  15.4138

     occupation numbers 
     1.0000   1.0000   1.0000   1.0000   1.0000   1.0000   1.0228   0.9845
    -0.0003  -0.0002  -0.0000  -0.0000

     the Fermi energy is     4.3882 ev

!    total energy              =     -49.71437950 Ry
     estimated scf accuracy    <          2.8E-10 Ry
     smearing contrib. (-TS)   =       0.00018900 Ry
     internal energy E=F+TS    =     -49.71456850 Ry

     The total energy is F=E-TS. E is the sum of the following terms:
     one-electron contribution =     -29.91322703 Ry
     hartree contribution      =      21.73986986 Ry
     xc contribution           =     -18.53790880 Ry
     ewald contribution        =     -23.00330253 Ry

     convergence has been achieved in   7 iterations

     Forces acting on atoms (cartesian axes, Ry/au):

     atom    1 type  1   force =    -0.00000000   -0.00029313    0.00000000
     atom    2 type  1   force =     0.00000000    0.00029313    0.00000000
     atom    3 type  1   force =     0.00000000    0.00029402    0.00000000
     atom    4 type  1   force =     0.00000000   -0.00029402    0.00000000
     The non-local contrib.  to forces
     atom    1 type  1   force =     0.00000000   -0.00026137    0.00000000
     atom    2 type  1   force =     0.00000000    0.00026137    0.00000000
     atom    3 type  1   force =     0.00000000    0.00026181    0.00000000
     atom    4 type  1   force =    -0.00000000   -0.00026181    0.00000000
     The ionic contribution  to forces
     atom    1 type  1   force =    -0.00000000   -0.00098176   -0.00000000
     atom    2 type  1   force =    -0.00000000    0.00098176    0.00000000
     atom    3 type  1   force =    -0.00000000    0.00098202   -0.00000000
     atom    4 type  1   force =     0.00000000   -0.00098202    0.00000000
     The local contribution  to forces
     atom    1 type  1   force =     0.00000000    0.00094150    0.00000000
     atom    2 type  1   force =    -0.00000000   -0.00094150    0.00000000
     atom    3 type  1   force =    -0.00000000   -0.00094202    0.00000000
     atom    4 type  1   force =    -0.00000000    0.00094202    0.00000000
     The core correction contribution to forces
     atom    1 type  1   force =     0.00000000    0.00000849   -0.00000000
     atom    2 type  1   force =     0.00000000   -0.00000849   -0.00000000
     atom    3 type  1   force =     0.00000000   -0.00000776   -0.00000000
     atom    4 type  1   force =     0.00000000    0.00000776   -0.00000000
     The Hubbard contrib.    to forces
     atom    1 type  1   force =     0.00000000    0.00000000    0.00000000
     atom    2 type  1   force =     0.00000000    0.00000000    0.00000000
     atom    3 type  1   force =     0.00000000    0.00000000    0.00000000
     atom    4 type  1   force =     0.00000000    0.00000000    0.00000000
     The SCF correction term to forces
     atom    1 type  1   force =     0.00000000    0.00000001    0.00000000
     atom    2 type  1   force =    -0.00000000   -0.00000001    0.00000000
     atom    3 type  1   force =     0.00000000   -0.00000004    0.00000000
     atom    4 type  1   force =    -0.00000000    0.00000004    0.00000000

     Total force =     0.000587     Total SCF correction =     0.000000


     Computing stress (Cartesian axis) and pressure

          total   stress  (Ry/bohr**3)                   (kbar)     P=      -12.48
  -0.00012805  -0.00000000   0.00000000          -18.84       -0.00        0.00
   0.00000000  -0.00012657   0.00000000            0.00      -18.62        0.00
   0.00000000   0.00000000   0.00000002            0.00        0.00        0.00

     kinetic stress (kbar)   9266.45     -0.00      0.00
                               -0.00   9265.75      0.00
                                0.00      0.00  10528.33

     local   stress (kbar) -26774.31     -0.00      0.00
                               -0.00 -26778.71     -0.00
                                0.00     -0.00  27091.49

     nonloc. stress (kbar)   1801.56     -0.00      0.00
                               -0.00   1801.71     -0.00
                                0.00      0.00   1655.15

     hartree stress (kbar)   9939.51     -0.00     -0.00
                               -0.00   9940.13     -0.00
                               -0.00     -0.00  -9112.05

     exc-cor stress (kbar)   -164.93      0.00      0.00
                                0.00   -164.90      0.00
                                0.00      0.00   -269.56

     corecor stress (kbar)  -2235.97     -0.00      0.00
                               -0.00  -2235.99     -0.00
                                0.00     -0.00  -2197.77

     ewald   stress (kbar)   8148.85     -0.00     -0.00
                               -0.00   8153.39      0.00
                               -0.00      0.00 -27695.59

     hubbard stress (kbar)      0.00      0.00      0.00
                                0.00      0.00      0.00
                                0.00      0.00      0.00

     DFT-D   stress (kbar)      0.00      0.00      0.00
                                0.00      0.00      0.00
                                0.00      0.00      0.00

     XDM     stress (kbar)      0.00      0.00      0.00
                                0.00      0.00      0.00
                                0.00      0.00      0.00

     dft-nl  stress (kbar)      0.00      0.00      0.00
                                0.00      0.00      0.00
                                0.00      0.00      0.00

     TS-vdW  stress (kbar)      0.00      0.00      0.00
                                0.00      0.00      0.00
                                0.00      0.00      0.00



     Writing output data file ./tmp/C.save/

     init_run     :      2.79s CPU      2.92s WALL (       1 calls)
     electrons    :     31.12s CPU     31.96s WALL (       1 calls)
     forces       :      1.04s CPU      1.04s WALL (       1 calls)
     stress       :      2.67s CPU      2.70s WALL (       1 calls)

     Called by init_run:
     wfcinit      :      1.79s CPU      1.88s WALL (       1 calls)
     wfcinit:atom :      0.05s CPU      0.06s WALL (      72 calls)
     wfcinit:wfcr :      1.39s CPU      1.46s WALL (      72 calls)
     potinit      :      0.26s CPU      0.28s WALL (       1 calls)
     hinit0       :      0.61s CPU      0.62s WALL (       1 calls)

     Called by electrons:
     c_bands      :     24.80s CPU     25.50s WALL (       7 calls)
     sum_band     :      4.79s CPU      4.91s WALL (       7 calls)
     v_of_rho     :      1.22s CPU      1.25s WALL (       8 calls)
     v_h          :      0.06s CPU      0.06s WALL (       8 calls)
     v_xc         :      1.46s CPU      1.49s WALL (      10 calls)
     newd         :      0.36s CPU      0.37s WALL (       8 calls)
     mix_rho      :      0.10s CPU      0.10s WALL (       7 calls)

     Called by c_bands:
     init_us_2    :      1.16s CPU      1.22s WALL (    1224 calls)
     cegterg      :     23.28s CPU     23.89s WALL (     504 calls)

     Called by sum_band:
     sum_band:wei :      0.02s CPU      0.02s WALL (       7 calls)
     sum_band:loo :      4.11s CPU      4.21s WALL (       7 calls)
     sum_band:buf :      0.04s CPU      0.04s WALL (     504 calls)
     sum_band:ini :      0.47s CPU      0.48s WALL (     504 calls)
     sum_band:cal :      0.36s CPU      0.36s WALL (     504 calls)
     sum_band:bec :      0.01s CPU      0.01s WALL (     504 calls)
     addusdens    :      0.35s CPU      0.36s WALL (       7 calls)
     addusd:skk   :      0.01s CPU      0.01s WALL (       7 calls)
     addusd:dgemm :      0.08s CPU      0.09s WALL (       7 calls)
     addusd:qvan2 :      0.15s CPU      0.15s WALL (       7 calls)

     Called by *egterg:
     cdiaghg      :      0.91s CPU      0.94s WALL (    2200 calls)
     cegterg:over :      1.12s CPU      1.16s WALL (    1696 calls)
     cegterg:upda :      0.74s CPU      0.76s WALL (    1696 calls)
     cegterg:last :      1.22s CPU      1.26s WALL (    1120 calls)
     h_psi        :     18.61s CPU     19.12s WALL (    2272 calls)
     s_psi        :      1.03s CPU      1.07s WALL (    2272 calls)
     g_psi        :      0.25s CPU      0.26s WALL (    1696 calls)

     Called by h_psi:
     h_psi:calbec :      1.22s CPU      1.26s WALL (    2272 calls)
     vloc_psi     :     16.03s CPU     16.46s WALL (    2272 calls)
     add_vuspsi   :      1.14s CPU      1.18s WALL (    2272 calls)

     General routines
     calbec       :      1.80s CPU      1.85s WALL (    3136 calls)
     fft          :      0.80s CPU      0.81s WALL (     127 calls)
     ffts         :      0.02s CPU      0.02s WALL (      15 calls)
     fftw         :     15.19s CPU     15.61s WALL (   40746 calls)
     interpolate  :      0.06s CPU      0.06s WALL (       8 calls)

     Parallel routines

     PWSCF        :     37.90s CPU     39.00s WALL


   This run was terminated on:  17:18:44  23May2022            

=------------------------------------------------------------------------------=
   JOB DONE.
=------------------------------------------------------------------------------=
