
     Program PWSCF v.6.7MaX starts on 23May2022 at 17:17:18 

     This program is part of the open-source Quantum ESPRESSO suite
     for quantum simulation of materials; please cite
         "P. Giannozzi et al., J. Phys.:Condens. Matter 21 395502 (2009);
         "P. Giannozzi et al., J. Phys.:Condens. Matter 29 465901 (2017);
          URL http://www.quantum-espresso.org", 
     in publications or presentations arising from this work. More details at
     http://www.quantum-espresso.org/quote

     Parallel version (MPI), running on     1 processors

     MPI processes distributed on     1 nodes
     Waiting for input...
     Reading input from standard input

     Current dimensions of program PWSCF are:
     Max number of different atomic species (ntypx) = 10
     Max number of k-points (npk) =  40000
     Max angular momentum in pseudopotentials (lmaxx) =  3

     Subspace diagonalization in iterative solution of the eigenvalue problem:
     a serial algorithm will be used


     G-vector sticks info
     --------------------
     sticks:   dense  smooth     PW     G-vecs:    dense   smooth      PW
     Sum         547     265     85                34301    12031    2173



     bravais-lattice index     =            4
     lattice parameter (alat)  =       4.6676  a.u.
     unit-cell volume          =     297.0066 (a.u.)^3
     number of atoms/cell      =            4
     number of atomic types    =            1
     number of electrons       =        16.00
     number of Kohn-Sham states=           12
     kinetic-energy cutoff     =      45.0000  Ry
     charge density cutoff     =     360.0000  Ry
     scf convergence threshold =      1.0E-09
     mixing beta               =       0.7000
     number of iterations used =            8  plain     mixing
     Exchange-correlation= PBE
                           (   1   4   3   4   0   0   0)

     celldm(1)=   4.667624  celldm(2)=   1.000000  celldm(3)=   3.372470
     celldm(4)=   0.000000  celldm(5)=   0.000000  celldm(6)=   0.000000

     crystal axes: (cart. coord. in units of alat)
               a(1) = (   1.000000   0.000000   0.000000 )  
               a(2) = (  -0.500000   0.866025   0.000000 )  
               a(3) = (   0.000000   0.000000   3.372470 )  

     reciprocal axes: (cart. coord. in units 2 pi/alat)
               b(1) = (  1.000000  0.577350 -0.000000 )  
               b(2) = (  0.000000  1.154701  0.000000 )  
               b(3) = (  0.000000 -0.000000  0.296519 )  


     PseudoPot. # 1 for C  read from file:
     /home/max/Desktop/graphite_DFT/Pseudo/C.pbe-n-rrkjus_psl.1.0.0.UPF
     MD5 check sum: 1fdd950c42eb37d8afe3dd2f8d12311e
     Pseudo is Ultrasoft + core correction, Zval =  4.0
     Generated using &quot;atomic&quot; code by A. Dal Corso  v.6.3MaX
     Using radial grid of 1073 points,  4 beta functions with: 
                l(1) =   0
                l(2) =   0
                l(3) =   1
                l(4) =   1
     Q(r) pseudized with 0 coefficients 


     atomic species   valence    mass     pseudopotential
        C              4.00    12.01100     C ( 1.00)

      8 Sym. Ops., with inversion, found ( 4 have fractional translation)


                                    s                        frac. trans.

      isym =  1     identity                                     

 cryst.   s( 1) = (     1          0          0      )
                  (     0          1          0      )
                  (     0          0          1      )

 cart.    s( 1) = (  1.0000000  0.0000000  0.0000000 )
                  (  0.0000000  1.0000000  0.0000000 )
                  (  0.0000000  0.0000000  1.0000000 )


      isym =  2     180 deg rotation - cart. axis [0,0,1]        

 cryst.   s( 2) = (    -1          0          0      )    f =(  0.0000000 )
                  (     0         -1          0      )       (  0.0000000 )
                  (     0          0          1      )       ( -0.5000000 )

 cart.    s( 2) = ( -1.0000000  0.0000000  0.0000000 )    f =(  0.0000000 )
                  (  0.0000000 -1.0000000  0.0000000 )       (  0.0000000 )
                  (  0.0000000  0.0000000  1.0000000 )       ( -1.6862348 )


      isym =  3     180 deg rotation - cart. axis [0,1,0]        

 cryst.   s( 3) = (    -1          0          0      )    f =(  0.0000000 )
                  (     1          1          0      )       (  0.0000000 )
                  (     0          0         -1      )       (  0.5000000 )

 cart.    s( 3) = ( -1.0000000  0.0000000  0.0000000 )    f =(  0.0000000 )
                  (  0.0000000  1.0000000  0.0000000 )       (  0.0000000 )
                  (  0.0000000  0.0000000 -1.0000000 )       (  1.6862348 )


      isym =  4     180 deg rotation - cart. axis [1,0,0]        

 cryst.   s( 4) = (     1          0          0      )
                  (    -1         -1          0      )
                  (     0          0         -1      )

 cart.    s( 4) = (  1.0000000  0.0000000  0.0000000 )
                  (  0.0000000 -1.0000000  0.0000000 )
                  (  0.0000000  0.0000000 -1.0000000 )


      isym =  5     inversion                                    

 cryst.   s( 5) = (    -1          0          0      )
                  (     0         -1          0      )
                  (     0          0         -1      )

 cart.    s( 5) = ( -1.0000000  0.0000000  0.0000000 )
                  (  0.0000000 -1.0000000  0.0000000 )
                  (  0.0000000  0.0000000 -1.0000000 )


      isym =  6     inv. 180 deg rotation - cart. axis [0,0,1]   

 cryst.   s( 6) = (     1          0          0      )    f =(  0.0000000 )
                  (     0          1          0      )       (  0.0000000 )
                  (     0          0         -1      )       (  0.5000000 )

 cart.    s( 6) = (  1.0000000  0.0000000  0.0000000 )    f =(  0.0000000 )
                  (  0.0000000  1.0000000  0.0000000 )       (  0.0000000 )
                  (  0.0000000  0.0000000 -1.0000000 )       (  1.6862348 )


      isym =  7     inv. 180 deg rotation - cart. axis [0,1,0]   

 cryst.   s( 7) = (     1          0          0      )    f =(  0.0000000 )
                  (    -1         -1          0      )       (  0.0000000 )
                  (     0          0          1      )       ( -0.5000000 )

 cart.    s( 7) = (  1.0000000  0.0000000  0.0000000 )    f =(  0.0000000 )
                  (  0.0000000 -1.0000000  0.0000000 )       (  0.0000000 )
                  (  0.0000000  0.0000000  1.0000000 )       ( -1.6862348 )


      isym =  8     inv. 180 deg rotation - cart. axis [1,0,0]   

 cryst.   s( 8) = (    -1          0          0      )
                  (     1          1          0      )
                  (     0          0          1      )

 cart.    s( 8) = ( -1.0000000  0.0000000  0.0000000 )
                  (  0.0000000  1.0000000  0.0000000 )
                  (  0.0000000  0.0000000  1.0000000 )


     point group D_2h (mmm) 
     there are  8 classes
     the character table:

       E     C2    C2'   C2''  i     s_v   s_v'  s_v''
A_g    1.00  1.00  1.00  1.00  1.00  1.00  1.00  1.00
B_1g   1.00  1.00 -1.00 -1.00  1.00  1.00 -1.00 -1.00
B_2g   1.00 -1.00  1.00 -1.00  1.00 -1.00  1.00 -1.00
B_3g   1.00 -1.00 -1.00  1.00  1.00 -1.00 -1.00  1.00
A_u    1.00  1.00  1.00  1.00 -1.00 -1.00 -1.00 -1.00
B_1u   1.00  1.00 -1.00 -1.00 -1.00 -1.00  1.00  1.00
B_2u   1.00 -1.00  1.00 -1.00 -1.00  1.00 -1.00  1.00
B_3u   1.00 -1.00 -1.00  1.00 -1.00  1.00  1.00 -1.00

     the symmetry operations in each class and the name of the first element:

     E        1
          identity                                               
     C2       2
          180 deg rotation - cart. axis [0,0,1]                  
     C2'      4
          180 deg rotation - cart. axis [1,0,0]                  
     C2''     3
          180 deg rotation - cart. axis [0,1,0]                  
     i        5
          inversion                                              
     s_v      6
          inv. 180 deg rotation - cart. axis [0,0,1]             
     s_v'     8
          inv. 180 deg rotation - cart. axis [1,0,0]             
     s_v''    7
          inv. 180 deg rotation - cart. axis [0,1,0]             

   Cartesian axes

     site n.     atom                  positions (alat units)
         1           C   tau(   1) = (   0.0000000   0.0000000   0.8431174  )
         2           C   tau(   2) = (   0.0000000   0.0000000   2.5293522  )
         3           C   tau(   3) = (   0.0000000   0.5772925   0.8431174  )
         4           C   tau(   4) = (   0.5000000   0.2887329   2.5293522  )

   Crystallographic axes

     site n.     atom                  positions (cryst. coord.)
         1           C   tau(   1) = (  0.0000000  0.0000000  0.2500000  )
         2           C   tau(   2) = (  0.0000000  0.0000000  0.7500000  )
         3           C   tau(   3) = (  0.3333000  0.6666000  0.2500000  )
         4           C   tau(   4) = (  0.6667000  0.3334000  0.7500000  )

     number of k points=    62  Methfessel-Paxton smearing, width (Ry)=  0.0300
                       cart. coord. in units 2pi/alat
        k(    1) = (   0.0000000   0.0000000   0.0000000), wk =   0.0066667
        k(    2) = (   0.0000000   0.0000000   0.0988395), wk =   0.0133333
        k(    3) = (   0.0000000   0.1154701   0.0000000), wk =   0.0133333
        k(    4) = (   0.0000000   0.1154701   0.0988395), wk =   0.0266667
        k(    5) = (   0.0000000   0.2309401   0.0000000), wk =   0.0133333
        k(    6) = (   0.0000000   0.2309401   0.0988395), wk =   0.0266667
        k(    7) = (   0.0000000   0.3464102   0.0000000), wk =   0.0133333
        k(    8) = (   0.0000000   0.3464102   0.0988395), wk =   0.0266667
        k(    9) = (   0.0000000   0.4618802   0.0000000), wk =   0.0133333
        k(   10) = (   0.0000000   0.4618802   0.0988395), wk =   0.0266667
        k(   11) = (   0.0000000  -0.5773503   0.0000000), wk =   0.0066667
        k(   12) = (   0.0000000  -0.5773503   0.0988395), wk =   0.0133333
        k(   13) = (   0.1000000   0.1732051   0.0000000), wk =   0.0266667
        k(   14) = (   0.1000000   0.1732051   0.0988395), wk =   0.0533333
        k(   15) = (   0.1000000   0.2886751   0.0000000), wk =   0.0266667
        k(   16) = (   0.1000000   0.2886751   0.0988395), wk =   0.0533333
        k(   17) = (   0.1000000   0.4041452   0.0000000), wk =   0.0266667
        k(   18) = (   0.1000000   0.4041452   0.0988395), wk =   0.0533333
        k(   19) = (   0.1000000   0.5196152   0.0000000), wk =   0.0266667
        k(   20) = (   0.1000000   0.5196152   0.0988395), wk =   0.0533333
        k(   21) = (   0.2000000   0.3464102   0.0000000), wk =   0.0266667
        k(   22) = (   0.2000000   0.3464102   0.0988395), wk =   0.0533333
        k(   23) = (   0.2000000   0.4618802   0.0000000), wk =   0.0266667
        k(   24) = (   0.2000000   0.4618802   0.0988395), wk =   0.0533333
        k(   25) = (   0.2000000   0.5773503   0.0000000), wk =   0.0133333
        k(   26) = (   0.2000000   0.5773503   0.0988395), wk =   0.0266667
        k(   27) = (   0.3000000   0.5196152   0.0000000), wk =   0.0266667
        k(   28) = (   0.3000000   0.5196152   0.0988395), wk =   0.0533333
        k(   29) = (  -0.1000000  -0.0577350   0.0000000), wk =   0.0266667
        k(   30) = (  -0.1000000  -0.0577350  -0.0988395), wk =   0.0533333
        k(   31) = (  -0.2000000  -0.1154701   0.0000000), wk =   0.0266667
        k(   32) = (  -0.2000000  -0.1154701  -0.0988395), wk =   0.0533333
        k(   33) = (  -0.3000000  -0.1732051   0.0000000), wk =   0.0266667
        k(   34) = (  -0.3000000  -0.1732051  -0.0988395), wk =   0.0533333
        k(   35) = (  -0.4000000  -0.2309401   0.0000000), wk =   0.0266667
        k(   36) = (  -0.4000000  -0.2309401  -0.0988395), wk =   0.0533333
        k(   37) = (   0.5000000   0.2886751   0.0000000), wk =   0.0133333
        k(   38) = (   0.5000000   0.2886751  -0.0988395), wk =   0.0266667
        k(   39) = (   0.2000000  -0.0000000   0.0000000), wk =   0.0133333
        k(   40) = (   0.2000000  -0.0000000  -0.0988395), wk =   0.0266667
        k(   41) = (  -0.2000000  -0.2309401   0.0000000), wk =   0.0266667
        k(   42) = (   0.3000000  -0.0577350   0.0000000), wk =   0.0266667
        k(   43) = (  -0.2000000  -0.2309401  -0.0988395), wk =   0.0533333
        k(   44) = (   0.3000000  -0.0577350  -0.0988395), wk =   0.0533333
        k(   45) = (  -0.3000000  -0.2886751   0.0000000), wk =   0.0266667
        k(   46) = (   0.4000000  -0.1154701   0.0000000), wk =   0.0266667
        k(   47) = (  -0.3000000  -0.2886751  -0.0988395), wk =   0.0533333
        k(   48) = (   0.4000000  -0.1154701  -0.0988395), wk =   0.0533333
        k(   49) = (  -0.4000000  -0.3464102   0.0000000), wk =   0.0266667
        k(   50) = (   0.5000000  -0.1732051   0.0000000), wk =   0.0266667
        k(   51) = (  -0.4000000  -0.3464102  -0.0988395), wk =   0.0533333
        k(   52) = (   0.5000000  -0.1732051  -0.0988395), wk =   0.0533333
        k(   53) = (   0.4000000  -0.0000000   0.0000000), wk =   0.0133333
        k(   54) = (   0.4000000  -0.0000000  -0.0988395), wk =   0.0266667
        k(   55) = (  -0.3000000  -0.4041452   0.0000000), wk =   0.0266667
        k(   56) = (   0.5000000  -0.0577350   0.0000000), wk =   0.0266667
        k(   57) = (  -0.3000000  -0.4041452  -0.0988395), wk =   0.0533333
        k(   58) = (   0.5000000  -0.0577350  -0.0988395), wk =   0.0533333
        k(   59) = (  -0.4000000  -0.4618802   0.0000000), wk =   0.0266667
        k(   60) = (  -0.4000000  -0.4618802  -0.0988395), wk =   0.0533333
        k(   61) = (   0.6000000   0.0000000   0.0000000), wk =   0.0133333
        k(   62) = (   0.6000000   0.0000000  -0.0988395), wk =   0.0266667

                       cryst. coord.
        k(    1) = (   0.0000000   0.0000000   0.0000000), wk =   0.0066667
        k(    2) = (   0.0000000   0.0000000   0.3333333), wk =   0.0133333
        k(    3) = (   0.0000000   0.1000000   0.0000000), wk =   0.0133333
        k(    4) = (   0.0000000   0.1000000   0.3333333), wk =   0.0266667
        k(    5) = (   0.0000000   0.2000000   0.0000000), wk =   0.0133333
        k(    6) = (   0.0000000   0.2000000   0.3333333), wk =   0.0266667
        k(    7) = (   0.0000000   0.3000000   0.0000000), wk =   0.0133333
        k(    8) = (   0.0000000   0.3000000   0.3333333), wk =   0.0266667
        k(    9) = (   0.0000000   0.4000000   0.0000000), wk =   0.0133333
        k(   10) = (   0.0000000   0.4000000   0.3333333), wk =   0.0266667
        k(   11) = (   0.0000000  -0.5000000   0.0000000), wk =   0.0066667
        k(   12) = (   0.0000000  -0.5000000   0.3333333), wk =   0.0133333
        k(   13) = (   0.1000000   0.1000000   0.0000000), wk =   0.0266667
        k(   14) = (   0.1000000   0.1000000   0.3333333), wk =   0.0533333
        k(   15) = (   0.1000000   0.2000000   0.0000000), wk =   0.0266667
        k(   16) = (   0.1000000   0.2000000   0.3333333), wk =   0.0533333
        k(   17) = (   0.1000000   0.3000000   0.0000000), wk =   0.0266667
        k(   18) = (   0.1000000   0.3000000   0.3333333), wk =   0.0533333
        k(   19) = (   0.1000000   0.4000000   0.0000000), wk =   0.0266667
        k(   20) = (   0.1000000   0.4000000   0.3333333), wk =   0.0533333
        k(   21) = (   0.2000000   0.2000000   0.0000000), wk =   0.0266667
        k(   22) = (   0.2000000   0.2000000   0.3333333), wk =   0.0533333
        k(   23) = (   0.2000000   0.3000000   0.0000000), wk =   0.0266667
        k(   24) = (   0.2000000   0.3000000   0.3333333), wk =   0.0533333
        k(   25) = (   0.2000000   0.4000000   0.0000000), wk =   0.0133333
        k(   26) = (   0.2000000   0.4000000   0.3333333), wk =   0.0266667
        k(   27) = (   0.3000000   0.3000000   0.0000000), wk =   0.0266667
        k(   28) = (   0.3000000   0.3000000   0.3333333), wk =   0.0533333
        k(   29) = (  -0.1000000   0.0000000   0.0000000), wk =   0.0266667
        k(   30) = (  -0.1000000   0.0000000  -0.3333333), wk =   0.0533333
        k(   31) = (  -0.2000000   0.0000000   0.0000000), wk =   0.0266667
        k(   32) = (  -0.2000000   0.0000000  -0.3333333), wk =   0.0533333
        k(   33) = (  -0.3000000   0.0000000   0.0000000), wk =   0.0266667
        k(   34) = (  -0.3000000   0.0000000  -0.3333333), wk =   0.0533333
        k(   35) = (  -0.4000000   0.0000000   0.0000000), wk =   0.0266667
        k(   36) = (  -0.4000000   0.0000000  -0.3333333), wk =   0.0533333
        k(   37) = (   0.5000000   0.0000000   0.0000000), wk =   0.0133333
        k(   38) = (   0.5000000   0.0000000  -0.3333333), wk =   0.0266667
        k(   39) = (   0.2000000  -0.1000000   0.0000000), wk =   0.0133333
        k(   40) = (   0.2000000  -0.1000000  -0.3333333), wk =   0.0266667
        k(   41) = (  -0.2000000  -0.1000000   0.0000000), wk =   0.0266667
        k(   42) = (   0.3000000  -0.2000000   0.0000000), wk =   0.0266667
        k(   43) = (  -0.2000000  -0.1000000  -0.3333333), wk =   0.0533333
        k(   44) = (   0.3000000  -0.2000000  -0.3333333), wk =   0.0533333
        k(   45) = (  -0.3000000  -0.1000000   0.0000000), wk =   0.0266667
        k(   46) = (   0.4000000  -0.3000000   0.0000000), wk =   0.0266667
        k(   47) = (  -0.3000000  -0.1000000  -0.3333333), wk =   0.0533333
        k(   48) = (   0.4000000  -0.3000000  -0.3333333), wk =   0.0533333
        k(   49) = (  -0.4000000  -0.1000000   0.0000000), wk =   0.0266667
        k(   50) = (   0.5000000  -0.4000000   0.0000000), wk =   0.0266667
        k(   51) = (  -0.4000000  -0.1000000  -0.3333333), wk =   0.0533333
        k(   52) = (   0.5000000  -0.4000000  -0.3333333), wk =   0.0533333
        k(   53) = (   0.4000000  -0.2000000   0.0000000), wk =   0.0133333
        k(   54) = (   0.4000000  -0.2000000  -0.3333333), wk =   0.0266667
        k(   55) = (  -0.3000000  -0.2000000   0.0000000), wk =   0.0266667
        k(   56) = (   0.5000000  -0.3000000   0.0000000), wk =   0.0266667
        k(   57) = (  -0.3000000  -0.2000000  -0.3333333), wk =   0.0533333
        k(   58) = (   0.5000000  -0.3000000  -0.3333333), wk =   0.0533333
        k(   59) = (  -0.4000000  -0.2000000   0.0000000), wk =   0.0266667
        k(   60) = (  -0.4000000  -0.2000000  -0.3333333), wk =   0.0533333
        k(   61) = (   0.6000000  -0.3000000   0.0000000), wk =   0.0133333
        k(   62) = (   0.6000000  -0.3000000  -0.3333333), wk =   0.0266667

     Dense  grid:    34301 G-vectors     FFT dimensions: (  30,  30,  96)

     Smooth grid:    12031 G-vectors     FFT dimensions: (  20,  20,  72)

     Dynamical RAM for                 wfc:       0.28 MB

     Dynamical RAM for     wfc (w. buffer):      17.46 MB

     Dynamical RAM for           str. fact:       0.52 MB

     Dynamical RAM for           local pot:       0.00 MB

     Dynamical RAM for          nlocal pot:       0.74 MB

     Dynamical RAM for                qrad:       0.44 MB

     Dynamical RAM for          rho,v,vnew:       3.55 MB

     Dynamical RAM for               rhoin:       1.18 MB

     Dynamical RAM for            rho*nmix:       8.37 MB

     Dynamical RAM for           G-vectors:       2.05 MB

     Dynamical RAM for          h,s,v(r/c):       0.03 MB

     Dynamical RAM for          <psi|beta>:       0.01 MB

     Dynamical RAM for                 psi:       0.55 MB

     Dynamical RAM for                hpsi:       0.55 MB

     Dynamical RAM for                spsi:       0.55 MB

     Dynamical RAM for      wfcinit/wfcrot:       0.75 MB

     Dynamical RAM for           addusdens:      24.60 MB

     Dynamical RAM for          addusforce:      28.00 MB

     Dynamical RAM for         addusstress:      26.17 MB

     Estimated static dynamical RAM per process >      38.66 MB

     Estimated max dynamical RAM per process >      66.67 MB

     Check: negative core charge=   -0.000010

     Initial potential from superposition of free atoms

     starting charge   15.99983, renormalised to   16.00000
     Starting wfcs are   16 randomized atomic wfcs

     total cpu time spent up to now is        2.7 secs

     Self-consistent Calculation

     iteration #  1     ecut=    45.00 Ry     beta= 0.70
     Davidson diagonalization with overlap
     ethr =  1.00E-02,  avg # of iterations =  2.9

     total cpu time spent up to now is        7.4 secs

     total energy              =     -49.66367103 Ry
     estimated scf accuracy    <       0.37657214 Ry

     iteration #  2     ecut=    45.00 Ry     beta= 0.70
     Davidson diagonalization with overlap
     ethr =  2.35E-03,  avg # of iterations =  2.6

     total cpu time spent up to now is       11.4 secs

     total energy              =     -49.71445059 Ry
     estimated scf accuracy    <       0.00434216 Ry

     iteration #  3     ecut=    45.00 Ry     beta= 0.70
     Davidson diagonalization with overlap
     ethr =  2.71E-05,  avg # of iterations =  7.4

     total cpu time spent up to now is       22.7 secs

     total energy              =     -49.71488888 Ry
     estimated scf accuracy    <       0.00031243 Ry

     iteration #  4     ecut=    45.00 Ry     beta= 0.70
     Davidson diagonalization with overlap
     c_bands:  1 eigenvalues not converged
     ethr =  1.95E-06,  avg # of iterations =  4.2

     total cpu time spent up to now is       30.4 secs

     total energy              =     -49.71490635 Ry
     estimated scf accuracy    <       0.00000194 Ry

     iteration #  5     ecut=    45.00 Ry     beta= 0.70
     Davidson diagonalization with overlap
     ethr =  1.22E-08,  avg # of iterations =  2.9

     total cpu time spent up to now is       35.9 secs

     total energy              =     -49.71490744 Ry
     estimated scf accuracy    <       0.00000009 Ry

     iteration #  6     ecut=    45.00 Ry     beta= 0.70
     Davidson diagonalization with overlap
     ethr =  5.48E-10,  avg # of iterations =  2.1

     total cpu time spent up to now is       40.2 secs

     total energy              =     -49.71490746 Ry
     estimated scf accuracy    <       0.00000002 Ry

     iteration #  7     ecut=    45.00 Ry     beta= 0.70
     Davidson diagonalization with overlap
     ethr =  1.24E-10,  avg # of iterations =  2.0

     total cpu time spent up to now is       43.7 secs

     End of self-consistent calculation

          k = 0.0000 0.0000 0.0000 (  1497 PWs)   bands (ev):

   -14.7005 -14.6552  -3.0624  -2.4985   1.7283   1.7298   1.7326   1.7341
     7.9711  11.4905  13.0928  13.0987

     occupation numbers 
     1.0000   1.0000   1.0000   1.0000   1.0000   1.0000   1.0000   1.0000
    -0.0000  -0.0000  -0.0000  -0.0000

          k = 0.0000 0.0000 0.0988 (  1462 PWs)   bands (ev):

   -14.6892 -14.6666  -2.9311  -2.6499   1.7287   1.7295   1.7330   1.7338
     8.6047  10.2122  13.0946  13.0999

     occupation numbers 
     1.0000   1.0000   1.0000   1.0000   1.0000   1.0000   1.0000   1.0000
    -0.0000  -0.0000  -0.0000  -0.0000

          k = 0.0000 0.1155 0.0000 (  1493 PWs)   bands (ev):

   -14.4651 -14.4207  -2.7783  -2.2213   0.8135   0.8172   1.2608   1.2636
     8.2772  11.7702  13.1553  13.1868

     occupation numbers 
     1.0000   1.0000   1.0000   1.0000   1.0000   1.0000   1.0000   1.0000
    -0.0000  -0.0000  -0.0000  -0.0000

          k = 0.0000 0.1155 0.0988 (  1490 PWs)   bands (ev):

   -14.4541 -14.4319  -2.6485  -2.3708   0.8144   0.8163   1.2615   1.2629
     8.9059  10.5008  13.1734  13.1834

     occupation numbers 
     1.0000   1.0000   1.0000   1.0000   1.0000   1.0000   1.0000   1.0000
    -0.0000  -0.0000  -0.0000  -0.0000

          k = 0.0000 0.2309 0.0000 (  1497 PWs)   bands (ev):

   -13.7627 -13.7208  -1.9368  -1.4021  -1.3603  -1.3518   0.2486   0.2526
     9.1953  12.5400  12.9761  13.0382

     occupation numbers 
     1.0000   1.0000   1.0000   1.0000   1.0000   1.0000   1.0000   1.0000
    -0.0000  -0.0000  -0.0000  -0.0000

          k = 0.0000 0.2309 0.0988 (  1506 PWs)   bands (ev):

   -13.7524 -13.7314  -1.8118  -1.5452  -1.3582  -1.3539   0.2496   0.2516
     9.8064  11.3470  13.0112  13.0314

     occupation numbers 
     1.0000   1.0000   1.0000   1.0000   1.0000   1.0000   1.0000   1.0000
    -0.0000  -0.0000  -0.0000  -0.0000

          k = 0.0000 0.3464 0.0000 (  1505 PWs)   bands (ev):

   -12.6064 -12.5684  -3.9676  -3.9531  -0.7371  -0.7323  -0.5810  -0.0905
    10.5287  10.7085  10.7160  12.5804

     occupation numbers 
     1.0000   1.0000   1.0000   1.0000   1.0000   1.0000   1.0000   1.0000
    -0.0000  -0.0000  -0.0000  -0.0000

          k = 0.0000 0.3464 0.0988 (  1506 PWs)   bands (ev):

   -12.5970 -12.5780  -3.9640  -3.9567  -0.7359  -0.7335  -0.4657  -0.2210
    10.5389  10.6387  11.3510  12.5227

     occupation numbers 
     1.0000   1.0000   1.0000   1.0000   1.0000   1.0000   1.0000   1.0000
    -0.0000  -0.0000  -0.0000  -0.0000

          k = 0.0000 0.4619 0.0000 (  1508 PWs)   bands (ev):

   -11.0300 -10.9974  -6.5351  -6.5147  -1.4041  -1.3990   1.1385   1.5342
     7.8270   8.0942  12.2331  12.2850

     occupation numbers 
     1.0000   1.0000   1.0000   1.0000   1.0000   1.0000   1.0000   1.0000
    -0.0000  -0.0000  -0.0000  -0.0000

          k = 0.0000 0.4619 0.0988 (  1510 PWs)   bands (ev):

   -11.0219 -11.0056  -6.5300  -6.5198  -1.4028  -1.4002   1.2331   1.4308
     7.8843   8.0180  12.2536  12.2801

     occupation numbers 
     1.0000   1.0000   1.0000   1.0000   1.0000   1.0000   1.0000   1.0000
    -0.0000  -0.0000  -0.0000  -0.0000

          k = 0.0000-0.5774 0.0000 (  1508 PWs)   bands (ev):

    -9.4717  -9.4568  -8.4274  -8.4154  -1.6365  -1.6313   2.3580   2.5308
     6.3739   6.6115  12.1211  12.1871

     occupation numbers 
     1.0000   1.0000   1.0000   1.0000   1.0000   1.0000   1.0000   1.0000
    -0.0000  -0.0000  -0.0000  -0.0000

          k = 0.0000-0.5774 0.0988 (  1516 PWs)   bands (ev):

    -9.4680  -9.4605  -8.4245  -8.4185  -1.6352  -1.6326   2.4035   2.4901
     6.4182   6.5369  12.1375  12.1705

     occupation numbers 
     1.0000   1.0000   1.0000   1.0000   1.0000   1.0000   1.0000   1.0000
    -0.0000  -0.0000  -0.0000  -0.0000

          k = 0.1000 0.1732 0.0000 (  1505 PWs)   bands (ev):

   -13.9963 -13.9535  -2.2152  -1.6728  -0.5311  -0.5274   0.3183   0.3208
     8.8904  12.3193  13.6011  13.6629

     occupation numbers 
     1.0000   1.0000   1.0000   1.0000   1.0000   1.0000   1.0000   1.0000
    -0.0000  -0.0000  -0.0000  -0.0000

          k = 0.1000 0.1732 0.0988 (  1504 PWs)   bands (ev):

   -13.9856 -13.9643  -2.0885  -1.8181  -0.5302  -0.5284   0.3189   0.3202
     9.5087  11.0754  13.6373  13.6556

     occupation numbers 
     1.0000   1.0000   1.0000   1.0000   1.0000   1.0000   1.0000   1.0000
    -0.0000  -0.0000  -0.0000  -0.0000

          k = 0.1000 0.2887 0.0000 (  1505 PWs)   bands (ev):

   -13.0669 -13.0273  -2.6871  -2.6774  -1.1127  -0.9215  -0.9161  -0.6025
    10.1141  11.6578  11.7618  13.4037

     occupation numbers 
     1.0000   1.0000   1.0000   1.0000   1.0000   1.0000   1.0000   1.0000
    -0.0000  -0.0000  -0.0000  -0.0000

          k = 0.1000 0.2887 0.0988 (  1507 PWs)   bands (ev):

   -13.0571 -13.0373  -2.6846  -2.6798  -0.9930  -0.9202  -0.9175  -0.7385
    10.6997  11.6825  11.7171  12.2546

     occupation numbers 
     1.0000   1.0000   1.0000   1.0000   1.0000   1.0000   1.0000   1.0000
    -0.0000  -0.0000  -0.0000  -0.0000

          k = 0.1000 0.4041 0.0000 (  1522 PWs)   bands (ev):

   -11.6985 -11.6635  -5.1892  -5.1726  -1.8370  -1.8299   0.4535   0.9018
     9.0126   9.2142  11.9287  13.3935

     occupation numbers 
     1.0000   1.0000   1.0000   1.0000   1.0000   1.0000   1.0000   1.0000
    -0.0000  -0.0000  -0.0000  -0.0000

          k = 0.1000 0.4041 0.0988 (  1512 PWs)   bands (ev):

   -11.6898 -11.6723  -5.1850  -5.1767  -1.8352  -1.8316   0.5596   0.7833
     9.0566   9.1580  12.4818  13.3754

     occupation numbers 
     1.0000   1.0000   1.0000   1.0000   1.0000   1.0000   1.0000   1.0000
    -0.0000  -0.0000  -0.0000  -0.0000

          k = 0.1000 0.5196 0.0000 (  1522 PWs)   bands (ev):

    -9.9693  -9.9413  -7.5592  -7.5378  -2.3128  -2.3050   2.1600   2.4495
     6.7475   6.9826  13.1515  13.2305

     occupation numbers 
     1.0000   1.0000   1.0000   1.0000   1.0000   1.0000   1.0000   1.0000
    -0.0000  -0.0000  -0.0000  -0.0000

          k = 0.1000 0.5196 0.0988 (  1517 PWs)   bands (ev):

    -9.9623  -9.9483  -7.5538  -7.5432  -2.3108  -2.3069   2.2315   2.3763
     6.7963   6.9141  13.1718  13.2113

     occupation numbers 
     1.0000   1.0000   1.0000   1.0000   1.0000   1.0000   1.0000   1.0000
    -0.0000  -0.0000  -0.0000  -0.0000

          k = 0.2000 0.3464 0.0000 (  1515 PWs)   bands (ev):

   -11.9248 -11.8890  -4.1547  -4.1474  -2.6724  -2.6668   0.2153   0.6793
     9.6180   9.7346  11.6346  14.4780

     occupation numbers 
     1.0000   1.0000   1.0000   1.0000   1.0000   1.0000   1.0000   1.0000
    -0.0000  -0.0000  -0.0000  -0.0000

          k = 0.2000 0.3464 0.0988 (  1513 PWs)   bands (ev):

   -11.9159 -11.8981  -4.1529  -4.1492  -2.6710  -2.6682   0.3248   0.5563
     9.6470   9.7053  12.1777  13.5120

     occupation numbers 
     1.0000   1.0000   1.0000   1.0000   1.0000   1.0000   1.0000   1.0000
    -0.0000  -0.0000  -0.0000  -0.0000

          k = 0.2000 0.4619 0.0000 (  1519 PWs)   bands (ev):

   -10.3780 -10.3475  -6.1424  -6.1263  -3.7443  -3.7336   1.9194   2.2966
     7.4099   7.5730  13.7146  15.6138

     occupation numbers 
     1.0000   1.0000   1.0000   1.0000   1.0000   1.0000   1.0000   1.0000
    -0.0000  -0.0000  -0.0000  -0.0000

          k = 0.2000 0.4619 0.0988 (  1529 PWs)   bands (ev):

   -10.3704 -10.3552  -6.1384  -6.1303  -3.7416  -3.7363   2.0097   2.1981
     7.4489   7.5305  14.1236  15.0055

     occupation numbers 
     1.0000   1.0000   1.0000   1.0000   1.0000   1.0000   1.0000   1.0000
    -0.0000  -0.0000  -0.0000  -0.0000

          k = 0.2000 0.5774 0.0000 (  1519 PWs)   bands (ev):

    -8.8670  -8.8531  -7.8755  -7.8659  -4.0495  -4.0373   3.2164   3.3839
     6.0634   6.1457  15.4672  15.6702

     occupation numbers 
     1.0000   1.0000   1.0000   1.0000   1.0000   1.0000   1.0028   1.0116
    -0.0000  -0.0000  -0.0000  -0.0000

          k = 0.2000 0.5774 0.0988 (  1536 PWs)   bands (ev):

    -8.8635  -8.8566  -7.8732  -7.8685  -4.0465  -4.0404   3.2610   3.3450
     6.0753   6.1169  15.4832  15.5641

     occupation numbers 
     1.0000   1.0000   1.0000   1.0000   1.0000   1.0000   1.0043   1.0087
    -0.0000  -0.0000  -0.0000  -0.0000

          k = 0.3000 0.5196 0.0000 (  1537 PWs)   bands (ev):

    -8.7539  -8.7304  -7.0679  -7.0569  -5.3655  -5.3589   3.6463   3.9137
     5.7326   5.8839  15.4850  15.8919

     occupation numbers 
     1.0000   1.0000   1.0000   1.0000   1.0000   1.0000   1.0354   0.9110
    -0.0000  -0.0000  -0.0000  -0.0000

          k = 0.3000 0.5196 0.0988 (  1532 PWs)   bands (ev):

    -8.7480  -8.7363  -7.0651  -7.0597  -5.3639  -5.3606   3.7122   3.8459
     5.7691   5.8445  15.3053  15.3233

     occupation numbers 
     1.0000   1.0000   1.0000   1.0000   1.0000   1.0000   1.0312   0.9750
    -0.0000  -0.0000  -0.0000  -0.0000

          k =-0.1000-0.0577 0.0000 (  1493 PWs)   bands (ev):

   -14.4651 -14.4207  -2.7784  -2.2213   0.8162   0.8199   1.2580   1.2608
     8.2771  11.7702  13.1520  13.1834

     occupation numbers 
     1.0000   1.0000   1.0000   1.0000   1.0000   1.0000   1.0000   1.0000
    -0.0000  -0.0000  -0.0000  -0.0000

          k =-0.1000-0.0577-0.0988 (  1490 PWs)   bands (ev):

   -14.4541 -14.4319  -2.6485  -2.3708   0.8171   0.8190   1.2587   1.2601
     8.9059  10.5008  13.1702  13.1801

     occupation numbers 
     1.0000   1.0000   1.0000   1.0000   1.0000   1.0000   1.0000   1.0000
    -0.0000  -0.0000  -0.0000  -0.0000

          k =-0.2000-0.1155 0.0000 (  1497 PWs)   bands (ev):

   -13.7627 -13.7208  -1.9369  -1.4022  -1.3584  -1.3499   0.2464   0.2504
     9.1953  12.5398  12.9743  13.0370

     occupation numbers 
     1.0000   1.0000   1.0000   1.0000   1.0000   1.0000   1.0000   1.0000
    -0.0000  -0.0000  -0.0000  -0.0000

          k =-0.2000-0.1155-0.0988 (  1506 PWs)   bands (ev):

   -13.7524 -13.7314  -1.8119  -1.5453  -1.3563  -1.3520   0.2474   0.2494
     9.8064  11.3468  13.0098  13.0302

     occupation numbers 
     1.0000   1.0000   1.0000   1.0000   1.0000   1.0000   1.0000   1.0000
    -0.0000  -0.0000  -0.0000  -0.0000

          k =-0.3000-0.1732 0.0000 (  1505 PWs)   bands (ev):

   -12.6064 -12.5683  -3.9663  -3.9518  -0.7389  -0.7341  -0.5813  -0.0908
    10.5297  10.7095  10.7160  12.5794

     occupation numbers 
     1.0000   1.0000   1.0000   1.0000   1.0000   1.0000   1.0000   1.0000
    -0.0000  -0.0000  -0.0000  -0.0000

          k =-0.3000-0.1732-0.0988 (  1506 PWs)   bands (ev):

   -12.5970 -12.5780  -3.9626  -3.9554  -0.7377  -0.7353  -0.4660  -0.2212
    10.5398  10.6396  11.3512  12.5219

     occupation numbers 
     1.0000   1.0000   1.0000   1.0000   1.0000   1.0000   1.0000   1.0000
    -0.0000  -0.0000  -0.0000  -0.0000

          k =-0.4000-0.2309 0.0000 (  1508 PWs)   bands (ev):

   -11.0300 -10.9974  -6.5341  -6.5137  -1.4056  -1.4005   1.1378   1.5334
     7.8286   8.0958  12.2324  12.2842

     occupation numbers 
     1.0000   1.0000   1.0000   1.0000   1.0000   1.0000   1.0000   1.0000
    -0.0000  -0.0000  -0.0000  -0.0000

          k =-0.4000-0.2309-0.0988 (  1510 PWs)   bands (ev):

   -11.0219 -11.0056  -6.5290  -6.5187  -1.4043  -1.4018   1.2324   1.4300
     7.8860   8.0197  12.2529  12.2794

     occupation numbers 
     1.0000   1.0000   1.0000   1.0000   1.0000   1.0000   1.0000   1.0000
    -0.0000  -0.0000  -0.0000  -0.0000

          k = 0.5000 0.2887 0.0000 (  1508 PWs)   bands (ev):

    -9.4726  -9.4577  -8.4255  -8.4136  -1.6380  -1.6328   2.3565   2.5294
     6.3762   6.6141  12.1204  12.1865

     occupation numbers 
     1.0000   1.0000   1.0000   1.0000   1.0000   1.0000   1.0000   1.0000
    -0.0000  -0.0000  -0.0000  -0.0000

          k = 0.5000 0.2887-0.0988 (  1516 PWs)   bands (ev):

    -9.4689  -9.4613  -8.4227  -8.4167  -1.6367  -1.6341   2.4020   2.4886
     6.4206   6.5394  12.1369  12.1698

     occupation numbers 
     1.0000   1.0000   1.0000   1.0000   1.0000   1.0000   1.0000   1.0000
    -0.0000  -0.0000  -0.0000  -0.0000

          k = 0.2000-0.0000 0.0000 (  1505 PWs)   bands (ev):

   -13.9962 -13.9535  -2.2153  -1.6728  -0.5286  -0.5249   0.3156   0.3181
     8.8904  12.3193  13.5968  13.6585

     occupation numbers 
     1.0000   1.0000   1.0000   1.0000   1.0000   1.0000   1.0000   1.0000
    -0.0000  -0.0000  -0.0000  -0.0000

          k = 0.2000-0.0000-0.0988 (  1504 PWs)   bands (ev):

   -13.9856 -13.9642  -2.0886  -1.8181  -0.5276  -0.5258   0.3162   0.3174
     9.5086  11.0753  13.6329  13.6513

     occupation numbers 
     1.0000   1.0000   1.0000   1.0000   1.0000   1.0000   1.0000   1.0000
    -0.0000  -0.0000  -0.0000  -0.0000

          k =-0.2000-0.2309 0.0000 (  1505 PWs)   bands (ev):

   -13.0669 -13.0273  -2.6860  -2.6763  -1.1127  -0.9228  -0.9174  -0.6026
    10.1141  11.6582  11.7620  13.4041

     occupation numbers 
     1.0000   1.0000   1.0000   1.0000   1.0000   1.0000   1.0000   1.0000
    -0.0000  -0.0000  -0.0000  -0.0000

          k = 0.3000-0.0577 0.0000 (  1505 PWs)   bands (ev):

   -13.0668 -13.0273  -2.6851  -2.6753  -1.1128  -0.9239  -0.9185  -0.6027
    10.1140  11.6588  11.7627  13.4037

     occupation numbers 
     1.0000   1.0000   1.0000   1.0000   1.0000   1.0000   1.0000   1.0000
    -0.0000  -0.0000  -0.0000  -0.0000

          k =-0.2000-0.2309-0.0988 (  1507 PWs)   bands (ev):

   -13.0571 -13.0373  -2.6835  -2.6787  -0.9931  -0.9215  -0.9188  -0.7386
    10.6996  11.6827  11.7174  12.2550

     occupation numbers 
     1.0000   1.0000   1.0000   1.0000   1.0000   1.0000   1.0000   1.0000
    -0.0000  -0.0000  -0.0000  -0.0000

          k = 0.3000-0.0577-0.0988 (  1507 PWs)   bands (ev):

   -13.0570 -13.0372  -2.6826  -2.6778  -0.9932  -0.9225  -0.9198  -0.7388
    10.6996  11.6833  11.7180  12.2548

     occupation numbers 
     1.0000   1.0000   1.0000   1.0000   1.0000   1.0000   1.0000   1.0000
    -0.0000  -0.0000  -0.0000  -0.0000

          k =-0.3000-0.2887 0.0000 (  1522 PWs)   bands (ev):

   -11.6984 -11.6634  -5.1881  -5.1715  -1.8384  -1.8312   0.4532   0.9014
     9.0136   9.2151  11.9287  13.3928

     occupation numbers 
     1.0000   1.0000   1.0000   1.0000   1.0000   1.0000   1.0000   1.0000
    -0.0000  -0.0000  -0.0000  -0.0000

          k = 0.4000-0.1155 0.0000 (  1522 PWs)   bands (ev):

   -11.6984 -11.6634  -5.1879  -5.1713  -1.8387  -1.8316   0.4530   0.9012
     9.0141   9.2156  11.9287  13.3922

     occupation numbers 
     1.0000   1.0000   1.0000   1.0000   1.0000   1.0000   1.0000   1.0000
    -0.0000  -0.0000  -0.0000  -0.0000

          k =-0.3000-0.2887-0.0988 (  1512 PWs)   bands (ev):

   -11.6898 -11.6723  -5.1840  -5.1757  -1.8366  -1.8330   0.5592   0.7830
     9.0575   9.1589  12.4819  13.3747

     occupation numbers 
     1.0000   1.0000   1.0000   1.0000   1.0000   1.0000   1.0000   1.0000
    -0.0000  -0.0000  -0.0000  -0.0000

          k = 0.4000-0.1155-0.0988 (  1512 PWs)   bands (ev):

   -11.6897 -11.6722  -5.1837  -5.1754  -1.8369  -1.8333   0.5591   0.7828
     9.0580   9.1594  12.4817  13.3742

     occupation numbers 
     1.0000   1.0000   1.0000   1.0000   1.0000   1.0000   1.0000   1.0000
    -0.0000  -0.0000  -0.0000  -0.0000

          k =-0.4000-0.3464 0.0000 (  1522 PWs)   bands (ev):

    -9.9695  -9.9415  -7.5580  -7.5366  -2.3141  -2.3063   2.1590   2.4483
     6.7494   6.9846  13.1509  13.2298

     occupation numbers 
     1.0000   1.0000   1.0000   1.0000   1.0000   1.0000   1.0000   1.0000
    -0.0000  -0.0000  -0.0000  -0.0000

          k = 0.5000-0.1732 0.0000 (  1522 PWs)   bands (ev):

    -9.9695  -9.9415  -7.5579  -7.5366  -2.3142  -2.3064   2.1589   2.4482
     6.7496   6.9848  13.1507  13.2297

     occupation numbers 
     1.0000   1.0000   1.0000   1.0000   1.0000   1.0000   1.0000   1.0000
    -0.0000  -0.0000  -0.0000  -0.0000

          k =-0.4000-0.3464-0.0988 (  1517 PWs)   bands (ev):

    -9.9625  -9.9485  -7.5527  -7.5420  -2.3122  -2.3083   2.2304   2.3752
     6.7982   6.9160  13.1711  13.2106

     occupation numbers 
     1.0000   1.0000   1.0000   1.0000   1.0000   1.0000   1.0000   1.0000
    -0.0000  -0.0000  -0.0000  -0.0000

          k = 0.5000-0.1732-0.0988 (  1517 PWs)   bands (ev):

    -9.9625  -9.9485  -7.5526  -7.5419  -2.3122  -2.3083   2.2303   2.3750
     6.7985   6.9163  13.1710  13.2105

     occupation numbers 
     1.0000   1.0000   1.0000   1.0000   1.0000   1.0000   1.0000   1.0000
    -0.0000  -0.0000  -0.0000  -0.0000

          k = 0.4000-0.0000 0.0000 (  1515 PWs)   bands (ev):

   -11.9247 -11.8890  -4.1529  -4.1456  -2.6744  -2.6688   0.2150   0.6790
     9.6191   9.7357  11.6346  14.4775

     occupation numbers 
     1.0000   1.0000   1.0000   1.0000   1.0000   1.0000   1.0000   1.0000
    -0.0000  -0.0000  -0.0000  -0.0000

          k = 0.4000-0.0000-0.0988 (  1513 PWs)   bands (ev):

   -11.9159 -11.8980  -4.1511  -4.1474  -2.6730  -2.6702   0.3245   0.5560
     9.6482   9.7064  12.1776  13.5117

     occupation numbers 
     1.0000   1.0000   1.0000   1.0000   1.0000   1.0000   1.0000   1.0000
    -0.0000  -0.0000  -0.0000  -0.0000

          k =-0.3000-0.4041 0.0000 (  1519 PWs)   bands (ev):

   -10.3780 -10.3475  -6.1415  -6.1255  -3.7452  -3.7346   1.9191   2.2962
     7.4107   7.5737  13.7146  15.6130

     occupation numbers 
     1.0000   1.0000   1.0000   1.0000   1.0000   1.0000   1.0000   1.0000
    -0.0000  -0.0000  -0.0000  -0.0000

          k = 0.5000-0.0577 0.0000 (  1519 PWs)   bands (ev):

   -10.3780 -10.3475  -6.1409  -6.1249  -3.7459  -3.7352   1.9187   2.2957
     7.4116   7.5746  13.7146  15.6122

     occupation numbers 
     1.0000   1.0000   1.0000   1.0000   1.0000   1.0000   1.0000   1.0000
    -0.0000  -0.0000  -0.0000  -0.0000

          k =-0.3000-0.4041-0.0988 (  1529 PWs)   bands (ev):

   -10.3705 -10.3552  -6.1375  -6.1295  -3.7426  -3.7373   2.0094   2.1977
     7.4496   7.5312  14.1237  15.0056

     occupation numbers 
     1.0000   1.0000   1.0000   1.0000   1.0000   1.0000   1.0000   1.0000
    -0.0000  -0.0000  -0.0000  -0.0000

          k = 0.5000-0.0577-0.0988 (  1529 PWs)   bands (ev):

   -10.3704 -10.3552  -6.1369  -6.1289  -3.7433  -3.7379   2.0090   2.1973
     7.4505   7.5321  14.1235  15.0047

     occupation numbers 
     1.0000   1.0000   1.0000   1.0000   1.0000   1.0000   1.0000   1.0000
    -0.0000  -0.0000  -0.0000  -0.0000

          k =-0.4000-0.4619 0.0000 (  1519 PWs)   bands (ev):

    -8.8680  -8.8541  -7.8735  -7.8640  -4.0507  -4.0385   3.2149   3.3824
     6.0655   6.1479  15.4664  15.6696

     occupation numbers 
     1.0000   1.0000   1.0000   1.0000   1.0000   1.0000   1.0028   1.0115
    -0.0000  -0.0000  -0.0000  -0.0000

          k =-0.4000-0.4619-0.0988 (  1536 PWs)   bands (ev):

    -8.8645  -8.8575  -7.8713  -7.8665  -4.0477  -4.0416   3.2595   3.3435
     6.0774   6.1191  15.4826  15.5626

     occupation numbers 
     1.0000   1.0000   1.0000   1.0000   1.0000   1.0000   1.0042   1.0086
    -0.0000  -0.0000  -0.0000  -0.0000

          k = 0.6000 0.0000 0.0000 (  1537 PWs)   bands (ev):

    -8.7541  -8.7307  -7.0666  -7.0557  -5.3666  -5.3599   3.6453   3.9126
     5.7340   5.8852  15.4843  15.9004

     occupation numbers 
     1.0000   1.0000   1.0000   1.0000   1.0000   1.0000   1.0354   0.9122
    -0.0000  -0.0000  -0.0000  -0.0000

          k = 0.6000 0.0000-0.0988 (  1532 PWs)   bands (ev):

    -8.7483  -8.7366  -7.0639  -7.0584  -5.3649  -5.3616   3.7112   3.8449
     5.7705   5.8459  15.3047  15.3230

     occupation numbers 
     1.0000   1.0000   1.0000   1.0000   1.0000   1.0000   1.0313   0.9758
    -0.0000  -0.0000  -0.0000  -0.0000

     the Fermi energy is     4.1506 ev

!    total energy              =     -49.71490747 Ry
     estimated scf accuracy    <          2.7E-10 Ry
     smearing contrib. (-TS)   =       0.00030814 Ry
     internal energy E=F+TS    =     -49.71521561 Ry

     The total energy is F=E-TS. E is the sum of the following terms:
     one-electron contribution =     -29.91344025 Ry
     hartree contribution      =      21.73928697 Ry
     xc contribution           =     -18.53775980 Ry
     ewald contribution        =     -23.00330253 Ry

     convergence has been achieved in   7 iterations

     Forces acting on atoms (cartesian axes, Ry/au):

     atom    1 type  1   force =     0.00000000   -0.00029412    0.00000000
     atom    2 type  1   force =     0.00000000    0.00029412    0.00000000
     atom    3 type  1   force =    -0.00000000    0.00029485    0.00000000
     atom    4 type  1   force =     0.00000000   -0.00029485    0.00000000
     The non-local contrib.  to forces
     atom    1 type  1   force =     0.00000000   -0.00026160    0.00000000
     atom    2 type  1   force =     0.00000000    0.00026160    0.00000000
     atom    3 type  1   force =     0.00000000    0.00026197    0.00000000
     atom    4 type  1   force =    -0.00000000   -0.00026197    0.00000000
     The ionic contribution  to forces
     atom    1 type  1   force =    -0.00000000   -0.00098176   -0.00000000
     atom    2 type  1   force =    -0.00000000    0.00098176    0.00000000
     atom    3 type  1   force =    -0.00000000    0.00098202   -0.00000000
     atom    4 type  1   force =     0.00000000   -0.00098202    0.00000000
     The local contribution  to forces
     atom    1 type  1   force =     0.00000000    0.00094058    0.00000000
     atom    2 type  1   force =    -0.00000000   -0.00094058    0.00000000
     atom    3 type  1   force =    -0.00000000   -0.00094115    0.00000000
     atom    4 type  1   force =    -0.00000000    0.00094115    0.00000000
     The core correction contribution to forces
     atom    1 type  1   force =     0.00000000    0.00000849   -0.00000000
     atom    2 type  1   force =     0.00000000   -0.00000849   -0.00000000
     atom    3 type  1   force =     0.00000000   -0.00000775   -0.00000000
     atom    4 type  1   force =     0.00000000    0.00000775   -0.00000000
     The Hubbard contrib.    to forces
     atom    1 type  1   force =     0.00000000    0.00000000    0.00000000
     atom    2 type  1   force =     0.00000000    0.00000000    0.00000000
     atom    3 type  1   force =     0.00000000    0.00000000    0.00000000
     atom    4 type  1   force =     0.00000000    0.00000000    0.00000000
     The SCF correction term to forces
     atom    1 type  1   force =     0.00000000    0.00000018   -0.00000000
     atom    2 type  1   force =     0.00000000   -0.00000018   -0.00000000
     atom    3 type  1   force =    -0.00000000   -0.00000024   -0.00000000
     atom    4 type  1   force =    -0.00000000    0.00000024   -0.00000000

     Total force =     0.000589     Total SCF correction =     0.000000


     Computing stress (Cartesian axis) and pressure

          total   stress  (Ry/bohr**3)                   (kbar)     P=      -12.83
  -0.00013159   0.00000000   0.00000000          -19.36        0.00        0.00
   0.00000000  -0.00013006   0.00000000            0.00      -19.13        0.00
   0.00000000   0.00000000   0.00000004            0.00        0.00        0.01

     kinetic stress (kbar)   9265.94      0.00      0.00
                                0.00   9265.25     -0.00
                                0.00     -0.00  10528.05

     local   stress (kbar) -26774.14     -0.00      0.00
                               -0.00 -26778.54      0.00
                                0.00      0.00  27091.56

     nonloc. stress (kbar)   1801.57     -0.00      0.00
                               -0.00   1801.72     -0.00
                                0.00     -0.00   1655.18

     hartree stress (kbar)   9939.29     -0.00     -0.00
                               -0.00   9939.91     -0.00
                               -0.00     -0.00  -9111.91

     exc-cor stress (kbar)   -164.91      0.00      0.00
                                0.00   -164.88     -0.00
                                0.00     -0.00   -269.55

     corecor stress (kbar)  -2235.97     -0.00     -0.00
                               -0.00  -2235.99     -0.00
                               -0.00      0.00  -2197.74

     ewald   stress (kbar)   8148.85     -0.00     -0.00
                               -0.00   8153.39      0.00
                               -0.00      0.00 -27695.59

     hubbard stress (kbar)      0.00      0.00      0.00
                                0.00      0.00      0.00
                                0.00      0.00      0.00

     DFT-D   stress (kbar)      0.00      0.00      0.00
                                0.00      0.00      0.00
                                0.00      0.00      0.00

     XDM     stress (kbar)      0.00      0.00      0.00
                                0.00      0.00      0.00
                                0.00      0.00      0.00

     dft-nl  stress (kbar)      0.00      0.00      0.00
                                0.00      0.00      0.00
                                0.00      0.00      0.00

     TS-vdW  stress (kbar)      0.00      0.00      0.00
                                0.00      0.00      0.00
                                0.00      0.00      0.00



     Writing output data file ./tmp/C.save/

     init_run     :      2.45s CPU      2.57s WALL (       1 calls)
     electrons    :     37.48s CPU     40.95s WALL (       1 calls)
     forces       :      0.91s CPU      0.92s WALL (       1 calls)
     stress       :      2.29s CPU      2.32s WALL (       1 calls)

     Called by init_run:
     wfcinit      :      1.49s CPU      1.54s WALL (       1 calls)
     wfcinit:atom :      0.05s CPU      0.05s WALL (      62 calls)
     wfcinit:wfcr :      1.16s CPU      1.20s WALL (      62 calls)
     potinit      :      0.25s CPU      0.26s WALL (       1 calls)
     hinit0       :      0.62s CPU      0.63s WALL (       1 calls)

     Called by electrons:
     c_bands      :     29.06s CPU     32.19s WALL (       7 calls)
     sum_band     :      6.10s CPU      6.36s WALL (       7 calls)
     v_of_rho     :      1.72s CPU      1.77s WALL (       8 calls)
     v_h          :      0.10s CPU      0.11s WALL (       8 calls)
     v_xc         :      1.90s CPU      1.95s WALL (      10 calls)
     newd         :      0.52s CPU      0.58s WALL (       8 calls)
     mix_rho      :      0.16s CPU      0.16s WALL (       7 calls)

     Called by c_bands:
     init_us_2    :      1.29s CPU      1.38s WALL (    1054 calls)
     cegterg      :     27.36s CPU     30.32s WALL (     434 calls)

     Called by sum_band:
     sum_band:wei :      0.02s CPU      0.02s WALL (       7 calls)
     sum_band:loo :      5.16s CPU      5.38s WALL (       7 calls)
     sum_band:buf :      0.05s CPU      0.06s WALL (     434 calls)
     sum_band:ini :      0.59s CPU      0.61s WALL (     434 calls)
     sum_band:cal :      0.43s CPU      0.45s WALL (     434 calls)
     sum_band:bec :      0.02s CPU      0.02s WALL (     434 calls)
     addusdens    :      0.49s CPU      0.52s WALL (       7 calls)
     addusd:skk   :      0.01s CPU      0.02s WALL (       7 calls)
     addusd:dgemm :      0.09s CPU      0.12s WALL (       7 calls)
     addusd:qvan2 :      0.22s CPU      0.22s WALL (       7 calls)

     Called by *egterg:
     cdiaghg      :      1.09s CPU      1.21s WALL (    1935 calls)
     cegterg:over :      1.32s CPU      1.53s WALL (    1501 calls)
     cegterg:upda :      0.99s CPU      1.12s WALL (    1501 calls)
     cegterg:last :      1.45s CPU      1.60s WALL (     962 calls)
     h_psi        :     21.28s CPU     23.41s WALL (    1997 calls)
     s_psi        :      1.23s CPU      1.39s WALL (    1997 calls)
     g_psi        :      0.27s CPU      0.31s WALL (    1501 calls)

     Called by h_psi:
     h_psi:calbec :      1.44s CPU      1.62s WALL (    1997 calls)
     vloc_psi     :     18.17s CPU     19.90s WALL (    1997 calls)
     add_vuspsi   :      1.42s CPU      1.63s WALL (    1997 calls)

     General routines
     calbec       :      2.04s CPU      2.25s WALL (    2741 calls)
     fft          :      1.08s CPU      1.11s WALL (     127 calls)
     ffts         :      0.02s CPU      0.02s WALL (      15 calls)
     fftw         :     17.51s CPU     19.14s WALL (   35212 calls)
     interpolate  :      0.09s CPU      0.09s WALL (       8 calls)

     Parallel routines

     PWSCF        :     43.35s CPU     47.04s WALL


   This run was terminated on:  17:18: 5  23May2022            

=------------------------------------------------------------------------------=
   JOB DONE.
=------------------------------------------------------------------------------=
