
     Program PWSCF v.6.7MaX starts on 23May2022 at 17:22:47 

     This program is part of the open-source Quantum ESPRESSO suite
     for quantum simulation of materials; please cite
         "P. Giannozzi et al., J. Phys.:Condens. Matter 21 395502 (2009);
         "P. Giannozzi et al., J. Phys.:Condens. Matter 29 465901 (2017);
          URL http://www.quantum-espresso.org", 
     in publications or presentations arising from this work. More details at
     http://www.quantum-espresso.org/quote

     Parallel version (MPI), running on     1 processors

     MPI processes distributed on     1 nodes
     Waiting for input...
     Reading input from standard input

     Current dimensions of program PWSCF are:
     Max number of different atomic species (ntypx) = 10
     Max number of k-points (npk) =  40000
     Max angular momentum in pseudopotentials (lmaxx) =  3

     Subspace diagonalization in iterative solution of the eigenvalue problem:
     a serial algorithm will be used


     G-vector sticks info
     --------------------
     sticks:   dense  smooth     PW     G-vecs:    dense   smooth      PW
     Sum         547     265     85                34301    12031    2223



     bravais-lattice index     =            4
     lattice parameter (alat)  =       4.6676  a.u.
     unit-cell volume          =     297.0066 (a.u.)^3
     number of atoms/cell      =            4
     number of atomic types    =            1
     number of electrons       =        16.00
     number of Kohn-Sham states=           12
     kinetic-energy cutoff     =      45.0000  Ry
     charge density cutoff     =     360.0000  Ry
     scf convergence threshold =      1.0E-09
     mixing beta               =       0.7000
     number of iterations used =            8  plain     mixing
     Exchange-correlation= PBE
                           (   1   4   3   4   0   0   0)

     celldm(1)=   4.667624  celldm(2)=   1.000000  celldm(3)=   3.372470
     celldm(4)=   0.000000  celldm(5)=   0.000000  celldm(6)=   0.000000

     crystal axes: (cart. coord. in units of alat)
               a(1) = (   1.000000   0.000000   0.000000 )  
               a(2) = (  -0.500000   0.866025   0.000000 )  
               a(3) = (   0.000000   0.000000   3.372470 )  

     reciprocal axes: (cart. coord. in units 2 pi/alat)
               b(1) = (  1.000000  0.577350 -0.000000 )  
               b(2) = (  0.000000  1.154701  0.000000 )  
               b(3) = (  0.000000 -0.000000  0.296519 )  


     PseudoPot. # 1 for C  read from file:
     /home/max/Desktop/graphite_DFT/Pseudo/C.pbe-n-rrkjus_psl.1.0.0.UPF
     MD5 check sum: 1fdd950c42eb37d8afe3dd2f8d12311e
     Pseudo is Ultrasoft + core correction, Zval =  4.0
     Generated using &quot;atomic&quot; code by A. Dal Corso  v.6.3MaX
     Using radial grid of 1073 points,  4 beta functions with: 
                l(1) =   0
                l(2) =   0
                l(3) =   1
                l(4) =   1
     Q(r) pseudized with 0 coefficients 


     atomic species   valence    mass     pseudopotential
        C              4.00    12.01100     C ( 1.00)

      8 Sym. Ops., with inversion, found ( 4 have fractional translation)


                                    s                        frac. trans.

      isym =  1     identity                                     

 cryst.   s( 1) = (     1          0          0      )
                  (     0          1          0      )
                  (     0          0          1      )

 cart.    s( 1) = (  1.0000000  0.0000000  0.0000000 )
                  (  0.0000000  1.0000000  0.0000000 )
                  (  0.0000000  0.0000000  1.0000000 )


      isym =  2     180 deg rotation - cart. axis [0,0,1]        

 cryst.   s( 2) = (    -1          0          0      )    f =(  0.0000000 )
                  (     0         -1          0      )       (  0.0000000 )
                  (     0          0          1      )       ( -0.5000000 )

 cart.    s( 2) = ( -1.0000000  0.0000000  0.0000000 )    f =(  0.0000000 )
                  (  0.0000000 -1.0000000  0.0000000 )       (  0.0000000 )
                  (  0.0000000  0.0000000  1.0000000 )       ( -1.6862348 )


      isym =  3     180 deg rotation - cart. axis [0,1,0]        

 cryst.   s( 3) = (    -1          0          0      )    f =(  0.0000000 )
                  (     1          1          0      )       (  0.0000000 )
                  (     0          0         -1      )       (  0.5000000 )

 cart.    s( 3) = ( -1.0000000  0.0000000  0.0000000 )    f =(  0.0000000 )
                  (  0.0000000  1.0000000  0.0000000 )       (  0.0000000 )
                  (  0.0000000  0.0000000 -1.0000000 )       (  1.6862348 )


      isym =  4     180 deg rotation - cart. axis [1,0,0]        

 cryst.   s( 4) = (     1          0          0      )
                  (    -1         -1          0      )
                  (     0          0         -1      )

 cart.    s( 4) = (  1.0000000  0.0000000  0.0000000 )
                  (  0.0000000 -1.0000000  0.0000000 )
                  (  0.0000000  0.0000000 -1.0000000 )


      isym =  5     inversion                                    

 cryst.   s( 5) = (    -1          0          0      )
                  (     0         -1          0      )
                  (     0          0         -1      )

 cart.    s( 5) = ( -1.0000000  0.0000000  0.0000000 )
                  (  0.0000000 -1.0000000  0.0000000 )
                  (  0.0000000  0.0000000 -1.0000000 )


      isym =  6     inv. 180 deg rotation - cart. axis [0,0,1]   

 cryst.   s( 6) = (     1          0          0      )    f =(  0.0000000 )
                  (     0          1          0      )       (  0.0000000 )
                  (     0          0         -1      )       (  0.5000000 )

 cart.    s( 6) = (  1.0000000  0.0000000  0.0000000 )    f =(  0.0000000 )
                  (  0.0000000  1.0000000  0.0000000 )       (  0.0000000 )
                  (  0.0000000  0.0000000 -1.0000000 )       (  1.6862348 )


      isym =  7     inv. 180 deg rotation - cart. axis [0,1,0]   

 cryst.   s( 7) = (     1          0          0      )    f =(  0.0000000 )
                  (    -1         -1          0      )       (  0.0000000 )
                  (     0          0          1      )       ( -0.5000000 )

 cart.    s( 7) = (  1.0000000  0.0000000  0.0000000 )    f =(  0.0000000 )
                  (  0.0000000 -1.0000000  0.0000000 )       (  0.0000000 )
                  (  0.0000000  0.0000000  1.0000000 )       ( -1.6862348 )


      isym =  8     inv. 180 deg rotation - cart. axis [1,0,0]   

 cryst.   s( 8) = (    -1          0          0      )
                  (     1          1          0      )
                  (     0          0          1      )

 cart.    s( 8) = ( -1.0000000  0.0000000  0.0000000 )
                  (  0.0000000  1.0000000  0.0000000 )
                  (  0.0000000  0.0000000  1.0000000 )


     point group D_2h (mmm) 
     there are  8 classes
     the character table:

       E     C2    C2'   C2''  i     s_v   s_v'  s_v''
A_g    1.00  1.00  1.00  1.00  1.00  1.00  1.00  1.00
B_1g   1.00  1.00 -1.00 -1.00  1.00  1.00 -1.00 -1.00
B_2g   1.00 -1.00  1.00 -1.00  1.00 -1.00  1.00 -1.00
B_3g   1.00 -1.00 -1.00  1.00  1.00 -1.00 -1.00  1.00
A_u    1.00  1.00  1.00  1.00 -1.00 -1.00 -1.00 -1.00
B_1u   1.00  1.00 -1.00 -1.00 -1.00 -1.00  1.00  1.00
B_2u   1.00 -1.00  1.00 -1.00 -1.00  1.00 -1.00  1.00
B_3u   1.00 -1.00 -1.00  1.00 -1.00  1.00  1.00 -1.00

     the symmetry operations in each class and the name of the first element:

     E        1
          identity                                               
     C2       2
          180 deg rotation - cart. axis [0,0,1]                  
     C2'      4
          180 deg rotation - cart. axis [1,0,0]                  
     C2''     3
          180 deg rotation - cart. axis [0,1,0]                  
     i        5
          inversion                                              
     s_v      6
          inv. 180 deg rotation - cart. axis [0,0,1]             
     s_v'     8
          inv. 180 deg rotation - cart. axis [1,0,0]             
     s_v''    7
          inv. 180 deg rotation - cart. axis [0,1,0]             

   Cartesian axes

     site n.     atom                  positions (alat units)
         1           C   tau(   1) = (   0.0000000   0.0000000   0.8431174  )
         2           C   tau(   2) = (   0.0000000   0.0000000   2.5293522  )
         3           C   tau(   3) = (   0.0000000   0.5772925   0.8431174  )
         4           C   tau(   4) = (   0.5000000   0.2887329   2.5293522  )

   Crystallographic axes

     site n.     atom                  positions (cryst. coord.)
         1           C   tau(   1) = (  0.0000000  0.0000000  0.2500000  )
         2           C   tau(   2) = (  0.0000000  0.0000000  0.7500000  )
         3           C   tau(   3) = (  0.3333000  0.6666000  0.2500000  )
         4           C   tau(   4) = (  0.6667000  0.3334000  0.7500000  )

     number of k points=   192  Methfessel-Paxton smearing, width (Ry)=  0.0300
                       cart. coord. in units 2pi/alat
        k(    1) = (   0.0000000   0.0000000   0.0000000), wk =   0.0017778
        k(    2) = (   0.0000000   0.0000000   0.0593037), wk =   0.0035556
        k(    3) = (   0.0000000   0.0000000   0.1186074), wk =   0.0035556
        k(    4) = (   0.0000000   0.0769800   0.0000000), wk =   0.0035556
        k(    5) = (   0.0000000   0.0769800   0.0593037), wk =   0.0071111
        k(    6) = (   0.0000000   0.0769800   0.1186074), wk =   0.0071111
        k(    7) = (   0.0000000   0.1539601   0.0000000), wk =   0.0035556
        k(    8) = (   0.0000000   0.1539601   0.0593037), wk =   0.0071111
        k(    9) = (   0.0000000   0.1539601   0.1186074), wk =   0.0071111
        k(   10) = (   0.0000000   0.2309401   0.0000000), wk =   0.0035556
        k(   11) = (   0.0000000   0.2309401   0.0593037), wk =   0.0071111
        k(   12) = (   0.0000000   0.2309401   0.1186074), wk =   0.0071111
        k(   13) = (   0.0000000   0.3079201   0.0000000), wk =   0.0035556
        k(   14) = (   0.0000000   0.3079201   0.0593037), wk =   0.0071111
        k(   15) = (   0.0000000   0.3079201   0.1186074), wk =   0.0071111
        k(   16) = (   0.0000000   0.3849002   0.0000000), wk =   0.0035556
        k(   17) = (   0.0000000   0.3849002   0.0593037), wk =   0.0071111
        k(   18) = (   0.0000000   0.3849002   0.1186074), wk =   0.0071111
        k(   19) = (   0.0000000   0.4618802   0.0000000), wk =   0.0035556
        k(   20) = (   0.0000000   0.4618802   0.0593037), wk =   0.0071111
        k(   21) = (   0.0000000   0.4618802   0.1186074), wk =   0.0071111
        k(   22) = (   0.0000000   0.5388603   0.0000000), wk =   0.0035556
        k(   23) = (   0.0000000   0.5388603   0.0593037), wk =   0.0071111
        k(   24) = (   0.0000000   0.5388603   0.1186074), wk =   0.0071111
        k(   25) = (   0.0666667   0.1154701   0.0000000), wk =   0.0071111
        k(   26) = (   0.0666667   0.1154701   0.0593037), wk =   0.0142222
        k(   27) = (   0.0666667   0.1154701   0.1186074), wk =   0.0142222
        k(   28) = (   0.0666667   0.1924501   0.0000000), wk =   0.0071111
        k(   29) = (   0.0666667   0.1924501   0.0593037), wk =   0.0142222
        k(   30) = (   0.0666667   0.1924501   0.1186074), wk =   0.0142222
        k(   31) = (   0.0666667   0.2694301   0.0000000), wk =   0.0071111
        k(   32) = (   0.0666667   0.2694301   0.0593037), wk =   0.0142222
        k(   33) = (   0.0666667   0.2694301   0.1186074), wk =   0.0142222
        k(   34) = (   0.0666667   0.3464102   0.0000000), wk =   0.0071111
        k(   35) = (   0.0666667   0.3464102   0.0593037), wk =   0.0142222
        k(   36) = (   0.0666667   0.3464102   0.1186074), wk =   0.0142222
        k(   37) = (   0.0666667   0.4233902   0.0000000), wk =   0.0071111
        k(   38) = (   0.0666667   0.4233902   0.0593037), wk =   0.0142222
        k(   39) = (   0.0666667   0.4233902   0.1186074), wk =   0.0142222
        k(   40) = (   0.0666667   0.5003702   0.0000000), wk =   0.0071111
        k(   41) = (   0.0666667   0.5003702   0.0593037), wk =   0.0142222
        k(   42) = (   0.0666667   0.5003702   0.1186074), wk =   0.0142222
        k(   43) = (   0.0666667   0.5773503   0.0000000), wk =   0.0035556
        k(   44) = (   0.0666667   0.5773503   0.0593037), wk =   0.0071111
        k(   45) = (   0.0666667   0.5773503   0.1186074), wk =   0.0071111
        k(   46) = (   0.1333333   0.2309401   0.0000000), wk =   0.0071111
        k(   47) = (   0.1333333   0.2309401   0.0593037), wk =   0.0142222
        k(   48) = (   0.1333333   0.2309401   0.1186074), wk =   0.0142222
        k(   49) = (   0.1333333   0.3079201   0.0000000), wk =   0.0071111
        k(   50) = (   0.1333333   0.3079201   0.0593037), wk =   0.0142222
        k(   51) = (   0.1333333   0.3079201   0.1186074), wk =   0.0142222
        k(   52) = (   0.1333333   0.3849002   0.0000000), wk =   0.0071111
        k(   53) = (   0.1333333   0.3849002   0.0593037), wk =   0.0142222
        k(   54) = (   0.1333333   0.3849002   0.1186074), wk =   0.0142222
        k(   55) = (   0.1333333   0.4618802   0.0000000), wk =   0.0071111
        k(   56) = (   0.1333333   0.4618802   0.0593037), wk =   0.0142222
        k(   57) = (   0.1333333   0.4618802   0.1186074), wk =   0.0142222
        k(   58) = (   0.1333333   0.5388603   0.0000000), wk =   0.0071111
        k(   59) = (   0.1333333   0.5388603   0.0593037), wk =   0.0142222
        k(   60) = (   0.1333333   0.5388603   0.1186074), wk =   0.0142222
        k(   61) = (   0.2000000   0.3464102   0.0000000), wk =   0.0071111
        k(   62) = (   0.2000000   0.3464102   0.0593037), wk =   0.0142222
        k(   63) = (   0.2000000   0.3464102   0.1186074), wk =   0.0142222
        k(   64) = (   0.2000000   0.4233902   0.0000000), wk =   0.0071111
        k(   65) = (   0.2000000   0.4233902   0.0593037), wk =   0.0142222
        k(   66) = (   0.2000000   0.4233902   0.1186074), wk =   0.0142222
        k(   67) = (   0.2000000   0.5003702   0.0000000), wk =   0.0071111
        k(   68) = (   0.2000000   0.5003702   0.0593037), wk =   0.0142222
        k(   69) = (   0.2000000   0.5003702   0.1186074), wk =   0.0142222
        k(   70) = (   0.2000000   0.5773503   0.0000000), wk =   0.0035556
        k(   71) = (   0.2000000   0.5773503   0.0593037), wk =   0.0071111
        k(   72) = (   0.2000000   0.5773503   0.1186074), wk =   0.0071111
        k(   73) = (   0.2666667   0.4618802   0.0000000), wk =   0.0071111
        k(   74) = (   0.2666667   0.4618802   0.0593037), wk =   0.0142222
        k(   75) = (   0.2666667   0.4618802   0.1186074), wk =   0.0142222
        k(   76) = (   0.2666667   0.5388603   0.0000000), wk =   0.0071111
        k(   77) = (   0.2666667   0.5388603   0.0593037), wk =   0.0142222
        k(   78) = (   0.2666667   0.5388603   0.1186074), wk =   0.0142222
        k(   79) = (   0.3333333   0.5773503   0.0000000), wk =   0.0035556
        k(   80) = (   0.3333333   0.5773503   0.0593037), wk =   0.0071111
        k(   81) = (   0.3333333   0.5773503   0.1186074), wk =   0.0071111
        k(   82) = (  -0.0666667  -0.0384900   0.0000000), wk =   0.0071111
        k(   83) = (  -0.0666667  -0.0384900  -0.0593037), wk =   0.0142222
        k(   84) = (  -0.0666667  -0.0384900  -0.1186074), wk =   0.0142222
        k(   85) = (  -0.1333333  -0.0769800   0.0000000), wk =   0.0071111
        k(   86) = (  -0.1333333  -0.0769800  -0.0593037), wk =   0.0142222
        k(   87) = (  -0.1333333  -0.0769800  -0.1186074), wk =   0.0142222
        k(   88) = (  -0.2000000  -0.1154701   0.0000000), wk =   0.0071111
        k(   89) = (  -0.2000000  -0.1154701  -0.0593037), wk =   0.0142222
        k(   90) = (  -0.2000000  -0.1154701  -0.1186074), wk =   0.0142222
        k(   91) = (  -0.2666667  -0.1539601   0.0000000), wk =   0.0071111
        k(   92) = (  -0.2666667  -0.1539601  -0.0593037), wk =   0.0142222
        k(   93) = (  -0.2666667  -0.1539601  -0.1186074), wk =   0.0142222
        k(   94) = (  -0.3333333  -0.1924501   0.0000000), wk =   0.0071111
        k(   95) = (  -0.3333333  -0.1924501  -0.0593037), wk =   0.0142222
        k(   96) = (  -0.3333333  -0.1924501  -0.1186074), wk =   0.0142222
        k(   97) = (  -0.4000000  -0.2309401   0.0000000), wk =   0.0071111
        k(   98) = (  -0.4000000  -0.2309401  -0.0593037), wk =   0.0142222
        k(   99) = (  -0.4000000  -0.2309401  -0.1186074), wk =   0.0142222
        k(  100) = (  -0.4666667  -0.2694301   0.0000000), wk =   0.0071111
        k(  101) = (  -0.4666667  -0.2694301  -0.0593037), wk =   0.0142222
        k(  102) = (  -0.4666667  -0.2694301  -0.1186074), wk =   0.0142222
        k(  103) = (   0.1333333   0.0000000   0.0000000), wk =   0.0035556
        k(  104) = (   0.1333333   0.0000000  -0.0593037), wk =   0.0071111
        k(  105) = (   0.1333333   0.0000000  -0.1186074), wk =   0.0071111
        k(  106) = (  -0.1333333  -0.1539601   0.0000000), wk =   0.0071111
        k(  107) = (   0.2000000  -0.0384900   0.0000000), wk =   0.0071111
        k(  108) = (  -0.1333333  -0.1539601  -0.0593037), wk =   0.0142222
        k(  109) = (   0.2000000  -0.0384900  -0.0593037), wk =   0.0142222
        k(  110) = (  -0.1333333  -0.1539601  -0.1186074), wk =   0.0142222
        k(  111) = (   0.2000000  -0.0384900  -0.1186074), wk =   0.0142222
        k(  112) = (  -0.2000000  -0.1924501   0.0000000), wk =   0.0071111
        k(  113) = (   0.2666667  -0.0769800   0.0000000), wk =   0.0071111
        k(  114) = (  -0.2000000  -0.1924501  -0.0593037), wk =   0.0142222
        k(  115) = (   0.2666667  -0.0769800  -0.0593037), wk =   0.0142222
        k(  116) = (  -0.2000000  -0.1924501  -0.1186074), wk =   0.0142222
        k(  117) = (   0.2666667  -0.0769800  -0.1186074), wk =   0.0142222
        k(  118) = (  -0.2666667  -0.2309401   0.0000000), wk =   0.0071111
        k(  119) = (   0.3333333  -0.1154701   0.0000000), wk =   0.0071111
        k(  120) = (  -0.2666667  -0.2309401  -0.0593037), wk =   0.0142222
        k(  121) = (   0.3333333  -0.1154701  -0.0593037), wk =   0.0142222
        k(  122) = (  -0.2666667  -0.2309401  -0.1186074), wk =   0.0142222
        k(  123) = (   0.3333333  -0.1154701  -0.1186074), wk =   0.0142222
        k(  124) = (  -0.3333333  -0.2694301   0.0000000), wk =   0.0071111
        k(  125) = (   0.4000000  -0.1539601   0.0000000), wk =   0.0071111
        k(  126) = (  -0.3333333  -0.2694301  -0.0593037), wk =   0.0142222
        k(  127) = (   0.4000000  -0.1539601  -0.0593037), wk =   0.0142222
        k(  128) = (  -0.3333333  -0.2694301  -0.1186074), wk =   0.0142222
        k(  129) = (   0.4000000  -0.1539601  -0.1186074), wk =   0.0142222
        k(  130) = (  -0.4000000  -0.3079201   0.0000000), wk =   0.0071111
        k(  131) = (   0.4666667  -0.1924501   0.0000000), wk =   0.0071111
        k(  132) = (  -0.4000000  -0.3079201  -0.0593037), wk =   0.0142222
        k(  133) = (   0.4666667  -0.1924501  -0.0593037), wk =   0.0142222
        k(  134) = (  -0.4000000  -0.3079201  -0.1186074), wk =   0.0142222
        k(  135) = (   0.4666667  -0.1924501  -0.1186074), wk =   0.0142222
        k(  136) = (  -0.4666667  -0.3464102   0.0000000), wk =   0.0071111
        k(  137) = (  -0.4666667  -0.3464102  -0.0593037), wk =   0.0142222
        k(  138) = (  -0.4666667  -0.3464102  -0.1186074), wk =   0.0142222
        k(  139) = (   0.2666667   0.0000000   0.0000000), wk =   0.0035556
        k(  140) = (   0.2666667   0.0000000  -0.0593037), wk =   0.0071111
        k(  141) = (   0.2666667   0.0000000  -0.1186074), wk =   0.0071111
        k(  142) = (  -0.2000000  -0.2694301   0.0000000), wk =   0.0071111
        k(  143) = (   0.3333333  -0.0384900   0.0000000), wk =   0.0071111
        k(  144) = (  -0.2000000  -0.2694301  -0.0593037), wk =   0.0142222
        k(  145) = (   0.3333333  -0.0384900  -0.0593037), wk =   0.0142222
        k(  146) = (  -0.2000000  -0.2694301  -0.1186074), wk =   0.0142222
        k(  147) = (   0.3333333  -0.0384900  -0.1186074), wk =   0.0142222
        k(  148) = (  -0.2666667  -0.3079201   0.0000000), wk =   0.0071111
        k(  149) = (   0.4000000  -0.0769800   0.0000000), wk =   0.0071111
        k(  150) = (  -0.2666667  -0.3079201  -0.0593037), wk =   0.0142222
        k(  151) = (   0.4000000  -0.0769800  -0.0593037), wk =   0.0142222
        k(  152) = (  -0.2666667  -0.3079201  -0.1186074), wk =   0.0142222
        k(  153) = (   0.4000000  -0.0769800  -0.1186074), wk =   0.0142222
        k(  154) = (  -0.3333333  -0.3464102   0.0000000), wk =   0.0071111
        k(  155) = (   0.4666667  -0.1154701   0.0000000), wk =   0.0071111
        k(  156) = (  -0.3333333  -0.3464102  -0.0593037), wk =   0.0142222
        k(  157) = (   0.4666667  -0.1154701  -0.0593037), wk =   0.0142222
        k(  158) = (  -0.3333333  -0.3464102  -0.1186074), wk =   0.0142222
        k(  159) = (   0.4666667  -0.1154701  -0.1186074), wk =   0.0142222
        k(  160) = (  -0.4000000  -0.3849002   0.0000000), wk =   0.0071111
        k(  161) = (   0.5333333  -0.1539601   0.0000000), wk =   0.0071111
        k(  162) = (  -0.4000000  -0.3849002  -0.0593037), wk =   0.0142222
        k(  163) = (   0.5333333  -0.1539601  -0.0593037), wk =   0.0142222
        k(  164) = (  -0.4000000  -0.3849002  -0.1186074), wk =   0.0142222
        k(  165) = (   0.5333333  -0.1539601  -0.1186074), wk =   0.0142222
        k(  166) = (   0.4000000  -0.0000000   0.0000000), wk =   0.0035556
        k(  167) = (   0.4000000  -0.0000000  -0.0593037), wk =   0.0071111
        k(  168) = (   0.4000000  -0.0000000  -0.1186074), wk =   0.0071111
        k(  169) = (  -0.2666667  -0.3849002   0.0000000), wk =   0.0071111
        k(  170) = (   0.4666667  -0.0384900   0.0000000), wk =   0.0071111
        k(  171) = (  -0.2666667  -0.3849002  -0.0593037), wk =   0.0142222
        k(  172) = (   0.4666667  -0.0384900  -0.0593037), wk =   0.0142222
        k(  173) = (  -0.2666667  -0.3849002  -0.1186074), wk =   0.0142222
        k(  174) = (   0.4666667  -0.0384900  -0.1186074), wk =   0.0142222
        k(  175) = (  -0.3333333  -0.4233902   0.0000000), wk =   0.0071111
        k(  176) = (   0.5333333  -0.0769800   0.0000000), wk =   0.0071111
        k(  177) = (  -0.3333333  -0.4233902  -0.0593037), wk =   0.0142222
        k(  178) = (   0.5333333  -0.0769800  -0.0593037), wk =   0.0142222
        k(  179) = (  -0.3333333  -0.4233902  -0.1186074), wk =   0.0142222
        k(  180) = (   0.5333333  -0.0769800  -0.1186074), wk =   0.0142222
        k(  181) = (  -0.4000000  -0.4618802   0.0000000), wk =   0.0071111
        k(  182) = (  -0.4000000  -0.4618802  -0.0593037), wk =   0.0142222
        k(  183) = (  -0.4000000  -0.4618802  -0.1186074), wk =   0.0142222
        k(  184) = (   0.5333333   0.0000000   0.0000000), wk =   0.0035556
        k(  185) = (   0.5333333   0.0000000  -0.0593037), wk =   0.0071111
        k(  186) = (   0.5333333   0.0000000  -0.1186074), wk =   0.0071111
        k(  187) = (  -0.3333333  -0.5003702   0.0000000), wk =   0.0071111
        k(  188) = (   0.6000000  -0.0384900   0.0000000), wk =   0.0071111
        k(  189) = (  -0.3333333  -0.5003702  -0.0593037), wk =   0.0142222
        k(  190) = (   0.6000000  -0.0384900  -0.0593037), wk =   0.0142222
        k(  191) = (  -0.3333333  -0.5003702  -0.1186074), wk =   0.0142222
        k(  192) = (   0.6000000  -0.0384900  -0.1186074), wk =   0.0142222

                       cryst. coord.
        k(    1) = (   0.0000000   0.0000000   0.0000000), wk =   0.0017778
        k(    2) = (   0.0000000   0.0000000   0.2000000), wk =   0.0035556
        k(    3) = (   0.0000000   0.0000000   0.4000000), wk =   0.0035556
        k(    4) = (   0.0000000   0.0666667   0.0000000), wk =   0.0035556
        k(    5) = (   0.0000000   0.0666667   0.2000000), wk =   0.0071111
        k(    6) = (   0.0000000   0.0666667   0.4000000), wk =   0.0071111
        k(    7) = (   0.0000000   0.1333333   0.0000000), wk =   0.0035556
        k(    8) = (   0.0000000   0.1333333   0.2000000), wk =   0.0071111
        k(    9) = (   0.0000000   0.1333333   0.4000000), wk =   0.0071111
        k(   10) = (   0.0000000   0.2000000   0.0000000), wk =   0.0035556
        k(   11) = (   0.0000000   0.2000000   0.2000000), wk =   0.0071111
        k(   12) = (   0.0000000   0.2000000   0.4000000), wk =   0.0071111
        k(   13) = (   0.0000000   0.2666667   0.0000000), wk =   0.0035556
        k(   14) = (   0.0000000   0.2666667   0.2000000), wk =   0.0071111
        k(   15) = (   0.0000000   0.2666667   0.4000000), wk =   0.0071111
        k(   16) = (   0.0000000   0.3333333   0.0000000), wk =   0.0035556
        k(   17) = (   0.0000000   0.3333333   0.2000000), wk =   0.0071111
        k(   18) = (   0.0000000   0.3333333   0.4000000), wk =   0.0071111
        k(   19) = (   0.0000000   0.4000000   0.0000000), wk =   0.0035556
        k(   20) = (   0.0000000   0.4000000   0.2000000), wk =   0.0071111
        k(   21) = (   0.0000000   0.4000000   0.4000000), wk =   0.0071111
        k(   22) = (   0.0000000   0.4666667   0.0000000), wk =   0.0035556
        k(   23) = (   0.0000000   0.4666667   0.2000000), wk =   0.0071111
        k(   24) = (   0.0000000   0.4666667   0.4000000), wk =   0.0071111
        k(   25) = (   0.0666667   0.0666667   0.0000000), wk =   0.0071111
        k(   26) = (   0.0666667   0.0666667   0.2000000), wk =   0.0142222
        k(   27) = (   0.0666667   0.0666667   0.4000000), wk =   0.0142222
        k(   28) = (   0.0666667   0.1333333   0.0000000), wk =   0.0071111
        k(   29) = (   0.0666667   0.1333333   0.2000000), wk =   0.0142222
        k(   30) = (   0.0666667   0.1333333   0.4000000), wk =   0.0142222
        k(   31) = (   0.0666667   0.2000000   0.0000000), wk =   0.0071111
        k(   32) = (   0.0666667   0.2000000   0.2000000), wk =   0.0142222
        k(   33) = (   0.0666667   0.2000000   0.4000000), wk =   0.0142222
        k(   34) = (   0.0666667   0.2666667   0.0000000), wk =   0.0071111
        k(   35) = (   0.0666667   0.2666667   0.2000000), wk =   0.0142222
        k(   36) = (   0.0666667   0.2666667   0.4000000), wk =   0.0142222
        k(   37) = (   0.0666667   0.3333333   0.0000000), wk =   0.0071111
        k(   38) = (   0.0666667   0.3333333   0.2000000), wk =   0.0142222
        k(   39) = (   0.0666667   0.3333333   0.4000000), wk =   0.0142222
        k(   40) = (   0.0666667   0.4000000   0.0000000), wk =   0.0071111
        k(   41) = (   0.0666667   0.4000000   0.2000000), wk =   0.0142222
        k(   42) = (   0.0666667   0.4000000   0.4000000), wk =   0.0142222
        k(   43) = (   0.0666667   0.4666667   0.0000000), wk =   0.0035556
        k(   44) = (   0.0666667   0.4666667   0.2000000), wk =   0.0071111
        k(   45) = (   0.0666667   0.4666667   0.4000000), wk =   0.0071111
        k(   46) = (   0.1333333   0.1333333   0.0000000), wk =   0.0071111
        k(   47) = (   0.1333333   0.1333333   0.2000000), wk =   0.0142222
        k(   48) = (   0.1333333   0.1333333   0.4000000), wk =   0.0142222
        k(   49) = (   0.1333333   0.2000000   0.0000000), wk =   0.0071111
        k(   50) = (   0.1333333   0.2000000   0.2000000), wk =   0.0142222
        k(   51) = (   0.1333333   0.2000000   0.4000000), wk =   0.0142222
        k(   52) = (   0.1333333   0.2666667   0.0000000), wk =   0.0071111
        k(   53) = (   0.1333333   0.2666667   0.2000000), wk =   0.0142222
        k(   54) = (   0.1333333   0.2666667   0.4000000), wk =   0.0142222
        k(   55) = (   0.1333333   0.3333333   0.0000000), wk =   0.0071111
        k(   56) = (   0.1333333   0.3333333   0.2000000), wk =   0.0142222
        k(   57) = (   0.1333333   0.3333333   0.4000000), wk =   0.0142222
        k(   58) = (   0.1333333   0.4000000   0.0000000), wk =   0.0071111
        k(   59) = (   0.1333333   0.4000000   0.2000000), wk =   0.0142222
        k(   60) = (   0.1333333   0.4000000   0.4000000), wk =   0.0142222
        k(   61) = (   0.2000000   0.2000000   0.0000000), wk =   0.0071111
        k(   62) = (   0.2000000   0.2000000   0.2000000), wk =   0.0142222
        k(   63) = (   0.2000000   0.2000000   0.4000000), wk =   0.0142222
        k(   64) = (   0.2000000   0.2666667   0.0000000), wk =   0.0071111
        k(   65) = (   0.2000000   0.2666667   0.2000000), wk =   0.0142222
        k(   66) = (   0.2000000   0.2666667   0.4000000), wk =   0.0142222
        k(   67) = (   0.2000000   0.3333333   0.0000000), wk =   0.0071111
        k(   68) = (   0.2000000   0.3333333   0.2000000), wk =   0.0142222
        k(   69) = (   0.2000000   0.3333333   0.4000000), wk =   0.0142222
        k(   70) = (   0.2000000   0.4000000   0.0000000), wk =   0.0035556
        k(   71) = (   0.2000000   0.4000000   0.2000000), wk =   0.0071111
        k(   72) = (   0.2000000   0.4000000   0.4000000), wk =   0.0071111
        k(   73) = (   0.2666667   0.2666667   0.0000000), wk =   0.0071111
        k(   74) = (   0.2666667   0.2666667   0.2000000), wk =   0.0142222
        k(   75) = (   0.2666667   0.2666667   0.4000000), wk =   0.0142222
        k(   76) = (   0.2666667   0.3333333   0.0000000), wk =   0.0071111
        k(   77) = (   0.2666667   0.3333333   0.2000000), wk =   0.0142222
        k(   78) = (   0.2666667   0.3333333   0.4000000), wk =   0.0142222
        k(   79) = (   0.3333333   0.3333333   0.0000000), wk =   0.0035556
        k(   80) = (   0.3333333   0.3333333   0.2000000), wk =   0.0071111
        k(   81) = (   0.3333333   0.3333333   0.4000000), wk =   0.0071111
        k(   82) = (  -0.0666667   0.0000000   0.0000000), wk =   0.0071111
        k(   83) = (  -0.0666667   0.0000000  -0.2000000), wk =   0.0142222
        k(   84) = (  -0.0666667   0.0000000  -0.4000000), wk =   0.0142222
        k(   85) = (  -0.1333333   0.0000000   0.0000000), wk =   0.0071111
        k(   86) = (  -0.1333333   0.0000000  -0.2000000), wk =   0.0142222
        k(   87) = (  -0.1333333   0.0000000  -0.4000000), wk =   0.0142222
        k(   88) = (  -0.2000000   0.0000000   0.0000000), wk =   0.0071111
        k(   89) = (  -0.2000000   0.0000000  -0.2000000), wk =   0.0142222
        k(   90) = (  -0.2000000   0.0000000  -0.4000000), wk =   0.0142222
        k(   91) = (  -0.2666667   0.0000000   0.0000000), wk =   0.0071111
        k(   92) = (  -0.2666667   0.0000000  -0.2000000), wk =   0.0142222
        k(   93) = (  -0.2666667   0.0000000  -0.4000000), wk =   0.0142222
        k(   94) = (  -0.3333333  -0.0000000   0.0000000), wk =   0.0071111
        k(   95) = (  -0.3333333  -0.0000000  -0.2000000), wk =   0.0142222
        k(   96) = (  -0.3333333  -0.0000000  -0.4000000), wk =   0.0142222
        k(   97) = (  -0.4000000   0.0000000   0.0000000), wk =   0.0071111
        k(   98) = (  -0.4000000   0.0000000  -0.2000000), wk =   0.0142222
        k(   99) = (  -0.4000000   0.0000000  -0.4000000), wk =   0.0142222
        k(  100) = (  -0.4666667   0.0000000   0.0000000), wk =   0.0071111
        k(  101) = (  -0.4666667   0.0000000  -0.2000000), wk =   0.0142222
        k(  102) = (  -0.4666667   0.0000000  -0.4000000), wk =   0.0142222
        k(  103) = (   0.1333333  -0.0666667   0.0000000), wk =   0.0035556
        k(  104) = (   0.1333333  -0.0666667  -0.2000000), wk =   0.0071111
        k(  105) = (   0.1333333  -0.0666667  -0.4000000), wk =   0.0071111
        k(  106) = (  -0.1333333  -0.0666667   0.0000000), wk =   0.0071111
        k(  107) = (   0.2000000  -0.1333333   0.0000000), wk =   0.0071111
        k(  108) = (  -0.1333333  -0.0666667  -0.2000000), wk =   0.0142222
        k(  109) = (   0.2000000  -0.1333333  -0.2000000), wk =   0.0142222
        k(  110) = (  -0.1333333  -0.0666667  -0.4000000), wk =   0.0142222
        k(  111) = (   0.2000000  -0.1333333  -0.4000000), wk =   0.0142222
        k(  112) = (  -0.2000000  -0.0666667   0.0000000), wk =   0.0071111
        k(  113) = (   0.2666667  -0.2000000   0.0000000), wk =   0.0071111
        k(  114) = (  -0.2000000  -0.0666667  -0.2000000), wk =   0.0142222
        k(  115) = (   0.2666667  -0.2000000  -0.2000000), wk =   0.0142222
        k(  116) = (  -0.2000000  -0.0666667  -0.4000000), wk =   0.0142222
        k(  117) = (   0.2666667  -0.2000000  -0.4000000), wk =   0.0142222
        k(  118) = (  -0.2666667  -0.0666667   0.0000000), wk =   0.0071111
        k(  119) = (   0.3333333  -0.2666667   0.0000000), wk =   0.0071111
        k(  120) = (  -0.2666667  -0.0666667  -0.2000000), wk =   0.0142222
        k(  121) = (   0.3333333  -0.2666667  -0.2000000), wk =   0.0142222
        k(  122) = (  -0.2666667  -0.0666667  -0.4000000), wk =   0.0142222
        k(  123) = (   0.3333333  -0.2666667  -0.4000000), wk =   0.0142222
        k(  124) = (  -0.3333333  -0.0666667   0.0000000), wk =   0.0071111
        k(  125) = (   0.4000000  -0.3333333   0.0000000), wk =   0.0071111
        k(  126) = (  -0.3333333  -0.0666667  -0.2000000), wk =   0.0142222
        k(  127) = (   0.4000000  -0.3333333  -0.2000000), wk =   0.0142222
        k(  128) = (  -0.3333333  -0.0666667  -0.4000000), wk =   0.0142222
        k(  129) = (   0.4000000  -0.3333333  -0.4000000), wk =   0.0142222
        k(  130) = (  -0.4000000  -0.0666667   0.0000000), wk =   0.0071111
        k(  131) = (   0.4666667  -0.4000000   0.0000000), wk =   0.0071111
        k(  132) = (  -0.4000000  -0.0666667  -0.2000000), wk =   0.0142222
        k(  133) = (   0.4666667  -0.4000000  -0.2000000), wk =   0.0142222
        k(  134) = (  -0.4000000  -0.0666667  -0.4000000), wk =   0.0142222
        k(  135) = (   0.4666667  -0.4000000  -0.4000000), wk =   0.0142222
        k(  136) = (  -0.4666667  -0.0666667   0.0000000), wk =   0.0071111
        k(  137) = (  -0.4666667  -0.0666667  -0.2000000), wk =   0.0142222
        k(  138) = (  -0.4666667  -0.0666667  -0.4000000), wk =   0.0142222
        k(  139) = (   0.2666667  -0.1333333   0.0000000), wk =   0.0035556
        k(  140) = (   0.2666667  -0.1333333  -0.2000000), wk =   0.0071111
        k(  141) = (   0.2666667  -0.1333333  -0.4000000), wk =   0.0071111
        k(  142) = (  -0.2000000  -0.1333333   0.0000000), wk =   0.0071111
        k(  143) = (   0.3333333  -0.2000000   0.0000000), wk =   0.0071111
        k(  144) = (  -0.2000000  -0.1333333  -0.2000000), wk =   0.0142222
        k(  145) = (   0.3333333  -0.2000000  -0.2000000), wk =   0.0142222
        k(  146) = (  -0.2000000  -0.1333333  -0.4000000), wk =   0.0142222
        k(  147) = (   0.3333333  -0.2000000  -0.4000000), wk =   0.0142222
        k(  148) = (  -0.2666667  -0.1333333   0.0000000), wk =   0.0071111
        k(  149) = (   0.4000000  -0.2666667   0.0000000), wk =   0.0071111
        k(  150) = (  -0.2666667  -0.1333333  -0.2000000), wk =   0.0142222
        k(  151) = (   0.4000000  -0.2666667  -0.2000000), wk =   0.0142222
        k(  152) = (  -0.2666667  -0.1333333  -0.4000000), wk =   0.0142222
        k(  153) = (   0.4000000  -0.2666667  -0.4000000), wk =   0.0142222
        k(  154) = (  -0.3333333  -0.1333333   0.0000000), wk =   0.0071111
        k(  155) = (   0.4666667  -0.3333333   0.0000000), wk =   0.0071111
        k(  156) = (  -0.3333333  -0.1333333  -0.2000000), wk =   0.0142222
        k(  157) = (   0.4666667  -0.3333333  -0.2000000), wk =   0.0142222
        k(  158) = (  -0.3333333  -0.1333333  -0.4000000), wk =   0.0142222
        k(  159) = (   0.4666667  -0.3333333  -0.4000000), wk =   0.0142222
        k(  160) = (  -0.4000000  -0.1333333   0.0000000), wk =   0.0071111
        k(  161) = (   0.5333333  -0.4000000   0.0000000), wk =   0.0071111
        k(  162) = (  -0.4000000  -0.1333333  -0.2000000), wk =   0.0142222
        k(  163) = (   0.5333333  -0.4000000  -0.2000000), wk =   0.0142222
        k(  164) = (  -0.4000000  -0.1333333  -0.4000000), wk =   0.0142222
        k(  165) = (   0.5333333  -0.4000000  -0.4000000), wk =   0.0142222
        k(  166) = (   0.4000000  -0.2000000   0.0000000), wk =   0.0035556
        k(  167) = (   0.4000000  -0.2000000  -0.2000000), wk =   0.0071111
        k(  168) = (   0.4000000  -0.2000000  -0.4000000), wk =   0.0071111
        k(  169) = (  -0.2666667  -0.2000000   0.0000000), wk =   0.0071111
        k(  170) = (   0.4666667  -0.2666667   0.0000000), wk =   0.0071111
        k(  171) = (  -0.2666667  -0.2000000  -0.2000000), wk =   0.0142222
        k(  172) = (   0.4666667  -0.2666667  -0.2000000), wk =   0.0142222
        k(  173) = (  -0.2666667  -0.2000000  -0.4000000), wk =   0.0142222
        k(  174) = (   0.4666667  -0.2666667  -0.4000000), wk =   0.0142222
        k(  175) = (  -0.3333333  -0.2000000   0.0000000), wk =   0.0071111
        k(  176) = (   0.5333333  -0.3333333   0.0000000), wk =   0.0071111
        k(  177) = (  -0.3333333  -0.2000000  -0.2000000), wk =   0.0142222
        k(  178) = (   0.5333333  -0.3333333  -0.2000000), wk =   0.0142222
        k(  179) = (  -0.3333333  -0.2000000  -0.4000000), wk =   0.0142222
        k(  180) = (   0.5333333  -0.3333333  -0.4000000), wk =   0.0142222
        k(  181) = (  -0.4000000  -0.2000000   0.0000000), wk =   0.0071111
        k(  182) = (  -0.4000000  -0.2000000  -0.2000000), wk =   0.0142222
        k(  183) = (  -0.4000000  -0.2000000  -0.4000000), wk =   0.0142222
        k(  184) = (   0.5333333  -0.2666667   0.0000000), wk =   0.0035556
        k(  185) = (   0.5333333  -0.2666667  -0.2000000), wk =   0.0071111
        k(  186) = (   0.5333333  -0.2666667  -0.4000000), wk =   0.0071111
        k(  187) = (  -0.3333333  -0.2666667   0.0000000), wk =   0.0071111
        k(  188) = (   0.6000000  -0.3333333   0.0000000), wk =   0.0071111
        k(  189) = (  -0.3333333  -0.2666667  -0.2000000), wk =   0.0142222
        k(  190) = (   0.6000000  -0.3333333  -0.2000000), wk =   0.0142222
        k(  191) = (  -0.3333333  -0.2666667  -0.4000000), wk =   0.0142222
        k(  192) = (   0.6000000  -0.3333333  -0.4000000), wk =   0.0142222

     Dense  grid:    34301 G-vectors     FFT dimensions: (  30,  30,  96)

     Smooth grid:    12031 G-vectors     FFT dimensions: (  20,  20,  72)

     Dynamical RAM for                 wfc:       0.28 MB

     Dynamical RAM for     wfc (w. buffer):      53.50 MB

     Dynamical RAM for           str. fact:       0.52 MB

     Dynamical RAM for           local pot:       0.00 MB

     Dynamical RAM for          nlocal pot:       0.74 MB

     Dynamical RAM for                qrad:       0.44 MB

     Dynamical RAM for          rho,v,vnew:       3.55 MB

     Dynamical RAM for               rhoin:       1.18 MB

     Dynamical RAM for            rho*nmix:       8.37 MB

     Dynamical RAM for           G-vectors:       2.05 MB

     Dynamical RAM for          h,s,v(r/c):       0.03 MB

     Dynamical RAM for          <psi|beta>:       0.01 MB

     Dynamical RAM for                 psi:       0.55 MB

     Dynamical RAM for                hpsi:       0.55 MB

     Dynamical RAM for                spsi:       0.55 MB

     Dynamical RAM for      wfcinit/wfcrot:       0.75 MB

     Dynamical RAM for           addusdens:      24.60 MB

     Dynamical RAM for          addusforce:      28.00 MB

     Dynamical RAM for         addusstress:      26.17 MB

     Estimated static dynamical RAM per process >      74.70 MB

     Estimated max dynamical RAM per process >     102.71 MB

     Check: negative core charge=   -0.000010

     Initial potential from superposition of free atoms

     starting charge   15.99983, renormalised to   16.00000
     Starting wfcs are   16 randomized atomic wfcs

     total cpu time spent up to now is        5.8 secs

     Self-consistent Calculation

     iteration #  1     ecut=    45.00 Ry     beta= 0.70
     Davidson diagonalization with overlap
     ethr =  1.00E-02,  avg # of iterations =  2.8

     total cpu time spent up to now is       17.6 secs

     total energy              =     -49.66267145 Ry
     estimated scf accuracy    <       0.37721168 Ry

     iteration #  2     ecut=    45.00 Ry     beta= 0.70
     Davidson diagonalization with overlap
     ethr =  2.36E-03,  avg # of iterations =  2.4

     total cpu time spent up to now is       27.8 secs

     total energy              =     -49.71383597 Ry
     estimated scf accuracy    <       0.00436737 Ry

     iteration #  3     ecut=    45.00 Ry     beta= 0.70
     Davidson diagonalization with overlap
     c_bands:  1 eigenvalues not converged
     ethr =  2.73E-05,  avg # of iterations =  7.9

     total cpu time spent up to now is       43.1 secs

     total energy              =     -49.71420106 Ry
     estimated scf accuracy    <       0.00031324 Ry

     iteration #  4     ecut=    45.00 Ry     beta= 0.70
     Davidson diagonalization with overlap
     c_bands:  1 eigenvalues not converged
     c_bands:  1 eigenvalues not converged
     c_bands:  1 eigenvalues not converged
     ethr =  1.96E-06,  avg # of iterations =  4.3

     total cpu time spent up to now is       53.4 secs

     total energy              =     -49.71421861 Ry
     estimated scf accuracy    <       0.00000192 Ry

     iteration #  5     ecut=    45.00 Ry     beta= 0.70
     Davidson diagonalization with overlap
     ethr =  1.20E-08,  avg # of iterations =  2.9

     total cpu time spent up to now is       64.9 secs

     total energy              =     -49.71421967 Ry
     estimated scf accuracy    <       0.00000008 Ry

     iteration #  6     ecut=    45.00 Ry     beta= 0.70
     Davidson diagonalization with overlap
     ethr =  5.12E-10,  avg # of iterations =  2.1

     total cpu time spent up to now is       75.2 secs

     total energy              =     -49.71421969 Ry
     estimated scf accuracy    <       0.00000002 Ry

     iteration #  7     ecut=    45.00 Ry     beta= 0.70
     Davidson diagonalization with overlap
     ethr =  1.40E-10,  avg # of iterations =  1.6

     total cpu time spent up to now is       95.8 secs

     End of self-consistent calculation

          k = 0.0000 0.0000 0.0000 (  1497 PWs)   bands (ev):

   -14.7002 -14.6548  -3.0622  -2.4982   1.7288   1.7303   1.7331   1.7346
     7.9712  13.0931  13.0987  13.0998

     occupation numbers 
     1.0000   1.0000   1.0000   1.0000   1.0000   1.0000   1.0000   1.0000
    -0.0000  -0.0000  -0.0000  -0.0000

          k = 0.0000 0.0000 0.0593 (  1492 PWs)   bands (ev):

   -14.6958 -14.6592  -3.0126  -2.5570   1.7289   1.7302   1.7332   1.7344
     8.2051  10.9193  13.0946  13.0993

     occupation numbers 
     1.0000   1.0000   1.0000   1.0000   1.0000   1.0000   1.0000   1.0000
    -0.0000  -0.0000  -0.0000  -0.0000

          k = 0.0000 0.0000 0.1186 (  1450 PWs)   bands (ev):

   -14.6845 -14.6705  -2.8791  -2.7055   1.7294   1.7298   1.7337   1.7341
     8.8678   9.8477  13.0956  13.0974

     occupation numbers 
     1.0000   1.0000   1.0000   1.0000   1.0000   1.0000   1.0000   1.0000
    -0.0000  -0.0000  -0.0000  -0.0000

          k = 0.0000 0.0770 0.0000 (  1487 PWs)   bands (ev):

   -14.5954 -14.5505  -2.9357  -2.3748   1.3058   1.3084   1.5117   1.5139
     8.1071  11.6154  13.1397  13.1586

     occupation numbers 
     1.0000   1.0000   1.0000   1.0000   1.0000   1.0000   1.0000   1.0000
    -0.0000  -0.0000  -0.0000  -0.0000

          k = 0.0000 0.0770 0.0593 (  1491 PWs)   bands (ev):

   -14.5912 -14.5549  -2.8864  -2.4333   1.3061   1.3081   1.5119   1.5137
     8.3403  11.0454  13.1456  13.1577

     occupation numbers 
     1.0000   1.0000   1.0000   1.0000   1.0000   1.0000   1.0000   1.0000
    -0.0000  -0.0000  -0.0000  -0.0000

          k = 0.0000 0.0770 0.1186 (  1479 PWs)   bands (ev):

   -14.5800 -14.5661  -2.7536  -2.5809   1.3067   1.3075   1.5125   1.5132
     9.0008   9.9774  13.1513  13.1552

     occupation numbers 
     1.0000   1.0000   1.0000   1.0000   1.0000   1.0000   1.0000   1.0000
    -0.0000  -0.0000  -0.0000  -0.0000

          k = 0.0000 0.1540 0.0000 (  1491 PWs)   bands (ev):

   -14.2821 -14.2383  -2.5583  -2.0068   0.1819   0.1870   0.9508   0.9541
     8.5154  11.9847  13.1369  13.1809

     occupation numbers 
     1.0000   1.0000   1.0000   1.0000   1.0000   1.0000   1.0000   1.0000
    -0.0000  -0.0000  -0.0000  -0.0000

          k = 0.0000 0.1540 0.0593 (  1495 PWs)   bands (ev):

   -14.2779 -14.2425  -2.5098  -2.0642   0.1824   0.1865   0.9511   0.9537
     8.7460  11.4203  13.1530  13.1794

     occupation numbers 
     1.0000   1.0000   1.0000   1.0000   1.0000   1.0000   1.0000   1.0000
    -0.0000  -0.0000  -0.0000  -0.0000

          k = 0.0000 0.1540 0.1186 (  1496 PWs)   bands (ev):

   -14.2670 -14.2535  -2.3790  -2.2092   0.1837   0.1852   0.9519   0.9529
     9.3995  10.3652  13.1666  13.1745

     occupation numbers 
     1.0000   1.0000   1.0000   1.0000   1.0000   1.0000   1.0000   1.0000
    -0.0000  -0.0000  -0.0000  -0.0000

          k = 0.0000 0.2309 0.0000 (  1497 PWs)   bands (ev):

   -13.7624 -13.7204  -1.9365  -1.4018  -1.3598  -1.3513   0.2491   0.2531
     9.1954  12.5402  12.9764  13.0390

     occupation numbers 
     1.0000   1.0000   1.0000   1.0000   1.0000   1.0000   1.0000   1.0000
    -0.0000  -0.0000  -0.0000  -0.0000

          k = 0.0000 0.2309 0.0593 (  1502 PWs)   bands (ev):

   -13.7584 -13.7245  -1.8894  -1.4573  -1.3590  -1.3521   0.2495   0.2527
     9.4211  12.0124  12.9998  13.0365

     occupation numbers 
     1.0000   1.0000   1.0000   1.0000   1.0000   1.0000   1.0000   1.0000
    -0.0000  -0.0000  -0.0000  -0.0000

          k = 0.0000 0.2309 0.1186 (  1500 PWs)   bands (ev):

   -13.7480 -13.7350  -1.7624  -1.5977  -1.3569  -1.3542   0.2505   0.2517
    10.0599  10.9999  13.0159  13.0281

     occupation numbers 
     1.0000   1.0000   1.0000   1.0000   1.0000   1.0000   1.0000   1.0000
    -0.0000  -0.0000  -0.0000  -0.0000

          k = 0.0000 0.3079 0.0000 (  1501 PWs)   bands (ev):

   -13.0406 -13.0011  -3.0853  -3.0729  -1.0846  -0.5760  -0.4340  -0.4294
    10.1439  11.4640  11.6039  12.7175

     occupation numbers 
     1.0000   1.0000   1.0000   1.0000   1.0000   1.0000   1.0000   1.0000
    -0.0000  -0.0000  -0.0000  -0.0000

          k = 0.0000 0.3079 0.0593 (  1496 PWs)   bands (ev):

   -13.0368 -13.0049  -3.0841  -3.0740  -1.0396  -0.6286  -0.4336  -0.4299
    10.3551  11.4786  11.5856  12.6795

     occupation numbers 
     1.0000   1.0000   1.0000   1.0000   1.0000   1.0000   1.0000   1.0000
    -0.0000  -0.0000  -0.0000  -0.0000

          k = 0.0000 0.3079 0.1186 (  1505 PWs)   bands (ev):

   -13.0270 -13.0148  -3.0810  -3.0771  -0.9185  -0.7618  -0.4324  -0.4310
    10.9258  11.4263  11.6119  12.0472

     occupation numbers 
     1.0000   1.0000   1.0000   1.0000   1.0000   1.0000   1.0000   1.0000
    -0.0000  -0.0000  -0.0000  -0.0000

          k = 0.0000 0.3849 0.0000 (  1504 PWs)   bands (ev):

   -12.1242 -12.0878  -4.8432  -4.8267  -1.0025  -0.9976  -0.0333   0.4345
     9.5907   9.8065  11.3483  12.4542

     occupation numbers 
     1.0000   1.0000   1.0000   1.0000   1.0000   1.0000   1.0000   1.0000
    -0.0000  -0.0000  -0.0000  -0.0000

          k = 0.0000 0.3849 0.0593 (  1509 PWs)   bands (ev):

   -12.1208 -12.0913  -4.8416  -4.8283  -1.0020  -0.9981   0.0085   0.3866
     9.6049   9.7804  11.5657  12.4547

     occupation numbers 
     1.0000   1.0000   1.0000   1.0000   1.0000   1.0000   1.0000   1.0000
    -0.0000  -0.0000  -0.0000  -0.0000

          k = 0.0000 0.3849 0.1186 (  1509 PWs)   bands (ev):

   -12.1117 -12.1005  -4.8375  -4.8324  -1.0008  -0.9993   0.1204   0.2646
     9.6502   9.7178  12.1320  12.4376

     occupation numbers 
     1.0000   1.0000   1.0000   1.0000   1.0000   1.0000   1.0000   1.0000
    -0.0000  -0.0000  -0.0000  -0.0000

          k = 0.0000 0.4619 0.0000 (  1508 PWs)   bands (ev):

   -11.0296 -10.9970  -6.5347  -6.5143  -1.4036  -1.3985   1.1388   1.5345
     7.8273   8.0945  12.2334  12.2853

     occupation numbers 
     1.0000   1.0000   1.0000   1.0000   1.0000   1.0000   1.0000   1.0000
    -0.0000  -0.0000  -0.0000  -0.0000

          k = 0.0000 0.4619 0.0593 (  1514 PWs)   bands (ev):

   -11.0266 -11.0001  -6.5327  -6.5163  -1.4031  -1.3990   1.1746   1.4946
     7.8484   8.0647  12.2425  12.2848

     occupation numbers 
     1.0000   1.0000   1.0000   1.0000   1.0000   1.0000   1.0000   1.0000
    -0.0000  -0.0000  -0.0000  -0.0000

          k = 0.0000 0.4619 0.1186 (  1509 PWs)   bands (ev):

   -11.0184 -11.0083  -6.5276  -6.5213  -1.4018  -1.4003   1.2703   1.3924
     7.9082   7.9909  12.2600  12.2765

     occupation numbers 
     1.0000   1.0000   1.0000   1.0000   1.0000   1.0000   1.0000   1.0000
    -0.0000  -0.0000  -0.0000  -0.0000

          k = 0.0000 0.5389 0.0000 (  1510 PWs)   bands (ev):

    -9.8342  -9.8083  -8.0353  -8.0141  -1.6100  -1.6048   2.1616   2.4028
     6.5687   6.8238  12.1351  12.2001

     occupation numbers 
     1.0000   1.0000   1.0000   1.0000   1.0000   1.0000   1.0000   1.0000
    -0.0000  -0.0000  -0.0000  -0.0000

          k = 0.0000 0.5389 0.0593 (  1522 PWs)   bands (ev):

    -9.8318  -9.8108  -8.0333  -8.0162  -1.6095  -1.6053   2.1849   2.3801
     6.5868   6.7932  12.1413  12.1939

     occupation numbers 
     1.0000   1.0000   1.0000   1.0000   1.0000   1.0000   1.0000   1.0000
    -0.0000  -0.0000  -0.0000  -0.0000

          k = 0.0000 0.5389 0.1186 (  1522 PWs)   bands (ev):

    -9.8253  -9.8173  -8.0280  -8.0215  -1.6082  -1.6066   2.2457   2.3203
     6.6406   6.7194  12.1576  12.1776

     occupation numbers 
     1.0000   1.0000   1.0000   1.0000   1.0000   1.0000   1.0000   1.0000
    -0.0000  -0.0000  -0.0000  -0.0000

          k = 0.0667 0.1155 0.0000 (  1501 PWs)   bands (ev):

   -14.3864 -14.3423  -2.6837  -2.1291   0.5850   0.5876   1.0687   1.0706
     8.3794  11.8630  13.2976  13.3357

     occupation numbers 
     1.0000   1.0000   1.0000   1.0000   1.0000   1.0000   1.0000   1.0000
    -0.0000  -0.0000  -0.0000  -0.0000

          k = 0.0667 0.1155 0.0593 (  1493 PWs)   bands (ev):

   -14.3822 -14.3465  -2.6350  -2.1868   0.5853   0.5874   1.0689   1.0705
     8.6109  11.2965  13.3116  13.3343

     occupation numbers 
     1.0000   1.0000   1.0000   1.0000   1.0000   1.0000   1.0000   1.0000
    -0.0000  -0.0000  -0.0000  -0.0000

          k = 0.0667 0.1155 0.1186 (  1491 PWs)   bands (ev):

   -14.3712 -14.3576  -2.5035  -2.3327   0.5859   0.5867   1.0694   1.0700
     9.2669  10.2365  13.3236  13.3304

     occupation numbers 
     1.0000   1.0000   1.0000   1.0000   1.0000   1.0000   1.0000   1.0000
    -0.0000  -0.0000  -0.0000  -0.0000

          k = 0.0667 0.1925 0.0000 (  1502 PWs)   bands (ev):

   -13.9699 -13.9272  -2.1839  -1.6423  -0.6599  -0.6544   0.3474   0.3508
     8.9242  12.3463  13.4156  13.4753

     occupation numbers 
     1.0000   1.0000   1.0000   1.0000   1.0000   1.0000   1.0000   1.0000
    -0.0000  -0.0000  -0.0000  -0.0000

          k = 0.0667 0.1925 0.0593 (  1499 PWs)   bands (ev):

   -13.9658 -13.9313  -2.1362  -1.6986  -0.6594  -0.6549   0.3477   0.3505
     9.1522  11.7911  13.4370  13.4728

     occupation numbers 
     1.0000   1.0000   1.0000   1.0000   1.0000   1.0000   1.0000   1.0000
    -0.0000  -0.0000  -0.0000  -0.0000

          k = 0.0667 0.1925 0.1186 (  1500 PWs)   bands (ev):

   -13.9552 -13.9421  -2.0077  -1.8409  -0.6580  -0.6563   0.3486   0.3496
     9.7981  10.7517  13.4547  13.4656

     occupation numbers 
     1.0000   1.0000   1.0000   1.0000   1.0000   1.0000   1.0000   1.0000
    -0.0000  -0.0000  -0.0000  -0.0000

          k = 0.0667 0.2694 0.0000 (  1500 PWs)   bands (ev):

   -13.3491 -13.3086  -2.2355  -2.2258  -1.4460  -0.9256  -0.4054  -0.4005
     9.7398  12.2438  12.3300  13.1471

     occupation numbers 
     1.0000   1.0000   1.0000   1.0000   1.0000   1.0000   1.0000   1.0000
    -0.0000  -0.0000  -0.0000  -0.0000

          k = 0.0667 0.2694 0.0593 (  1506 PWs)   bands (ev):

   -13.3453 -13.3125  -2.2346  -2.2267  -1.4000  -0.9795  -0.4049  -0.4010
     9.9607  12.2028  12.2977  12.6702

     occupation numbers 
     1.0000   1.0000   1.0000   1.0000   1.0000   1.0000   1.0000   1.0000
    -0.0000  -0.0000  -0.0000  -0.0000

          k = 0.0667 0.2694 0.1186 (  1503 PWs)   bands (ev):

   -13.3352 -13.3227  -2.2321  -2.2291  -1.2763  -1.1159  -0.4037  -0.4022
    10.5841  11.4860  12.3134  12.3728

     occupation numbers 
     1.0000   1.0000   1.0000   1.0000   1.0000   1.0000   1.0000   1.0000
    -0.0000  -0.0000  -0.0000  -0.0000

          k = 0.0667 0.3464 0.0000 (  1518 PWs)   bands (ev):

   -12.5300 -12.4922  -3.9466  -3.9326  -1.0628  -1.0571  -0.4905  -0.0025
    10.4515  10.6189  10.8209  13.0357

     occupation numbers 
     1.0000   1.0000   1.0000   1.0000   1.0000   1.0000   1.0000   1.0000
    -0.0000  -0.0000  -0.0000  -0.0000

          k = 0.0667 0.3464 0.0593 (  1513 PWs)   bands (ev):

   -12.5264 -12.4958  -3.9453  -3.9340  -1.0622  -1.0576  -0.4471  -0.0528
    10.4529  10.5943  11.0567  13.0187

     occupation numbers 
     1.0000   1.0000   1.0000   1.0000   1.0000   1.0000   1.0000   1.0000
    -0.0000  -0.0000  -0.0000  -0.0000

          k = 0.0667 0.3464 0.1186 (  1506 PWs)   bands (ev):

   -12.5170 -12.5053  -3.9418  -3.9375  -1.0608  -1.0590  -0.3307  -0.1803
    10.4864  10.5427  11.6761  12.5436

     occupation numbers 
     1.0000   1.0000   1.0000   1.0000   1.0000   1.0000   1.0000   1.0000
    -0.0000  -0.0000  -0.0000  -0.0000

          k = 0.0667 0.4234 0.0000 (  1524 PWs)   bands (ev):

   -11.5232 -11.4888  -5.6573  -5.6392  -1.5628  -1.5566   0.6357   1.0712
     8.6379   8.8705  12.1443  12.8049

     occupation numbers 
     1.0000   1.0000   1.0000   1.0000   1.0000   1.0000   1.0000   1.0000
    -0.0000  -0.0000  -0.0000  -0.0000

          k = 0.0667 0.4234 0.0593 (  1517 PWs)   bands (ev):

   -11.5199 -11.4921  -5.6556  -5.6409  -1.5622  -1.5572   0.6748   1.0268
     8.6563   8.8448  12.3398  12.8084

     occupation numbers 
     1.0000   1.0000   1.0000   1.0000   1.0000   1.0000   1.0000   1.0000
    -0.0000  -0.0000  -0.0000  -0.0000

          k = 0.0667 0.4234 0.1186 (  1511 PWs)   bands (ev):

   -11.5113 -11.5007  -5.6511  -5.6455  -1.5607  -1.5588   0.7794   0.9137
     8.7087   8.7809  12.7326  12.8083

     occupation numbers 
     1.0000   1.0000   1.0000   1.0000   1.0000   1.0000   1.0000   1.0000
    -0.0000  -0.0000  -0.0000  -0.0000

          k = 0.0667 0.5004 0.0000 (  1520 PWs)   bands (ev):

   -10.3591 -10.3290  -7.2663  -7.2448  -1.8732  -1.8668   1.7946   2.1267
     7.0722   7.3309  12.6359  12.7023

     occupation numbers 
     1.0000   1.0000   1.0000   1.0000   1.0000   1.0000   1.0000   1.0000
    -0.0000  -0.0000  -0.0000  -0.0000

          k = 0.0667 0.5004 0.0593 (  1520 PWs)   bands (ev):

   -10.3562 -10.3319  -7.2642  -7.2468  -1.8726  -1.8674   1.8253   2.0940
     7.0923   7.3017  12.6428  12.6967

     occupation numbers 
     1.0000   1.0000   1.0000   1.0000   1.0000   1.0000   1.0000   1.0000
    -0.0000  -0.0000  -0.0000  -0.0000

          k = 0.0667 0.5004 0.1186 (  1515 PWs)   bands (ev):

   -10.3487 -10.3395  -7.2589  -7.2522  -1.8710  -1.8690   1.9067   2.0093
     7.1497   7.2297  12.6603  12.6809

     occupation numbers 
     1.0000   1.0000   1.0000   1.0000   1.0000   1.0000   1.0000   1.0000
    -0.0000  -0.0000  -0.0000  -0.0000

          k = 0.0667 0.5774 0.0000 (  1519 PWs)   bands (ev):

    -9.4041  -9.3893  -8.3608  -8.3490  -1.9783  -1.9718   2.4542   2.6264
     6.3567   6.5779  12.5828  12.6556

     occupation numbers 
     1.0000   1.0000   1.0000   1.0000   1.0000   1.0000   1.0000   1.0000
    -0.0000  -0.0000  -0.0000  -0.0000

          k = 0.0667 0.5774 0.0593 (  1511 PWs)   bands (ev):

    -9.4026  -9.3906  -8.3597  -8.3502  -1.9777  -1.9724   2.4717   2.6112
     6.3713   6.5503  12.5896  12.6485

     occupation numbers 
     1.0000   1.0000   1.0000   1.0000   1.0000   1.0000   1.0000   1.0000
    -0.0000  -0.0000  -0.0000  -0.0000

          k = 0.0667 0.5774 0.1186 (  1517 PWs)   bands (ev):

    -9.3989  -9.3943  -8.3569  -8.3532  -1.9760  -1.9740   2.5165   2.5699
     6.4160   6.4844  12.6076  12.6302

     occupation numbers 
     1.0000   1.0000   1.0000   1.0000   1.0000   1.0000   1.0000   1.0000
    -0.0000  -0.0000  -0.0000  -0.0000

          k = 0.1333 0.2309 0.0000 (  1507 PWs)   bands (ev):

   -13.4523 -13.4114  -1.7551  -1.7503  -1.5673  -1.0430  -0.6076  -0.6042
     9.6055  12.5709  12.6534  12.9374

     occupation numbers 
     1.0000   1.0000   1.0000   1.0000   1.0000   1.0000   1.0000   1.0000
    -0.0000  -0.0000  -0.0000  -0.0000

          k = 0.1333 0.2309 0.0593 (  1507 PWs)   bands (ev):

   -13.4485 -13.4154  -1.7547  -1.7508  -1.5210  -1.0973  -0.6073  -0.6046
     9.8287  12.4012  12.5788  12.6453

     occupation numbers 
     1.0000   1.0000   1.0000   1.0000   1.0000   1.0000   1.0000   1.0000
    -0.0000  -0.0000  -0.0000  -0.0000

          k = 0.1333 0.2309 0.1186 (  1506 PWs)   bands (ev):

   -13.4383 -13.4257  -1.7535  -1.7520  -1.3964  -1.2348  -0.6064  -0.6054
    10.4604  11.3914  12.5989  12.6243

     occupation numbers 
     1.0000   1.0000   1.0000   1.0000   1.0000   1.0000   1.0000   1.0000
    -0.0000  -0.0000  -0.0000  -0.0000

          k = 0.1333 0.3079 0.0000 (  1510 PWs)   bands (ev):

   -12.7341 -12.6957  -3.1447  -3.1355  -1.5085  -1.5027  -0.7222  -0.2246
    10.5554  11.0151  11.1257  13.7292

     occupation numbers 
     1.0000   1.0000   1.0000   1.0000   1.0000   1.0000   1.0000   1.0000
    -0.0000  -0.0000  -0.0000  -0.0000

          k = 0.1333 0.3079 0.0593 (  1512 PWs)   bands (ev):

   -12.7305 -12.6994  -3.1438  -3.1364  -1.5079  -1.5033  -0.6781  -0.2759
    10.7636  11.0329  11.1138  13.2293

     occupation numbers 
     1.0000   1.0000   1.0000   1.0000   1.0000   1.0000   1.0000   1.0000
    -0.0000  -0.0000  -0.0000  -0.0000

          k = 0.1333 0.3079 0.1186 (  1507 PWs)   bands (ev):

   -12.7209 -12.7091  -3.1415  -3.1387  -1.5065  -1.5047  -0.5595  -0.4061
    11.0370  11.0818  11.3967  12.2787

     occupation numbers 
     1.0000   1.0000   1.0000   1.0000   1.0000   1.0000   1.0000   1.0000
    -0.0000  -0.0000  -0.0000  -0.0000

          k = 0.1333 0.3849 0.0000 (  1523 PWs)   bands (ev):

   -11.8236 -11.7882  -4.7284  -4.7139  -2.1803  -2.1724   0.3220   0.7792
     9.3268   9.4920  11.7665  14.1372

     occupation numbers 
     1.0000   1.0000   1.0000   1.0000   1.0000   1.0000   1.0000   1.0000
    -0.0000  -0.0000  -0.0000  -0.0000

          k = 0.1333 0.3849 0.0593 (  1517 PWs)   bands (ev):

   -11.8203 -11.7916  -4.7270  -4.7153  -2.1796  -2.1732   0.3629   0.7324
     9.3406   9.4748  11.9717  14.0790

     occupation numbers 
     1.0000   1.0000   1.0000   1.0000   1.0000   1.0000   1.0000   1.0000
    -0.0000  -0.0000  -0.0000  -0.0000

          k = 0.1333 0.3849 0.1186 (  1514 PWs)   bands (ev):

   -11.8115 -11.8005  -4.7234  -4.7189  -2.1776  -2.1752   0.4723   0.6132
     9.3792   9.4308  12.5456  13.3649

     occupation numbers 
     1.0000   1.0000   1.0000   1.0000   1.0000   1.0000   1.0000   1.0000
    -0.0000  -0.0000  -0.0000  -0.0000

          k = 0.1333 0.4619 0.0000 (  1525 PWs)   bands (ev):

   -10.7384 -10.7067  -6.3323  -6.3134  -2.6236  -2.6146   1.4927   1.8811
     7.6860   7.9008  13.2167  13.9489

     occupation numbers 
     1.0000   1.0000   1.0000   1.0000   1.0000   1.0000   1.0000   1.0000
    -0.0000  -0.0000  -0.0000  -0.0000

          k = 0.1333 0.4619 0.0593 (  1521 PWs)   bands (ev):

   -10.7354 -10.7098  -6.3305  -6.3152  -2.6227  -2.6155   1.5279   1.8420
     7.7040   7.8780  13.3951  13.9546

     occupation numbers 
     1.0000   1.0000   1.0000   1.0000   1.0000   1.0000   1.0000   1.0000
    -0.0000  -0.0000  -0.0000  -0.0000

          k = 0.1333 0.4619 0.1186 (  1515 PWs)   bands (ev):

   -10.7275 -10.7177  -6.3258  -6.3199  -2.6205  -2.6177   1.6219   1.7417
     7.7540   7.8205  13.8249  13.9591

     occupation numbers 
     1.0000   1.0000   1.0000   1.0000   1.0000   1.0000   1.0000   1.0000
    -0.0000  -0.0000  -0.0000  -0.0000

          k = 0.1333 0.5389 0.0000 (  1523 PWs)   bands (ev):

    -9.5582  -9.5331  -7.7866  -7.7666  -2.8450  -2.8356   2.5346   2.7751
     6.4694   6.6661  13.8291  13.9293

     occupation numbers 
     1.0000   1.0000   1.0000   1.0000   1.0000   1.0000   1.0000   1.0000
    -0.0000  -0.0000  -0.0000  -0.0000

          k = 0.1333 0.5389 0.0593 (  1519 PWs)   bands (ev):

    -9.5558  -9.5355  -7.7847  -7.7685  -2.8441  -2.8365   2.5578   2.7525
     6.4836   6.6429  13.8386  13.9194

     occupation numbers 
     1.0000   1.0000   1.0000   1.0000   1.0000   1.0000   1.0000   1.0000
    -0.0000  -0.0000  -0.0000  -0.0000

          k = 0.1333 0.5389 0.1186 (  1518 PWs)   bands (ev):

    -9.5495  -9.5418  -7.7797  -7.7735  -2.8418  -2.8389   2.6184   2.6928
     6.5255   6.5865  13.8632  13.8940

     occupation numbers 
     1.0000   1.0000   1.0000   1.0000   1.0000   1.0000   1.0000   1.0000
    -0.0000  -0.0000  -0.0000  -0.0000

          k = 0.2000 0.3464 0.0000 (  1515 PWs)   bands (ev):

   -11.9244 -11.8886  -4.1542  -4.1469  -2.6719  -2.6664   0.2156   0.6796
     9.6183   9.7350  11.6346  14.4781

     occupation numbers 
     1.0000   1.0000   1.0000   1.0000   1.0000   1.0000   1.0000   1.0000
    -0.0000  -0.0000  -0.0000  -0.0000

          k = 0.2000 0.3464 0.0593 (  1519 PWs)   bands (ev):

   -11.9210 -11.8921  -4.1536  -4.1476  -2.6714  -2.6669   0.2569   0.6320
     9.6294   9.7237  11.8358  14.0614

     occupation numbers 
     1.0000   1.0000   1.0000   1.0000   1.0000   1.0000   1.0000   1.0000
    -0.0000  -0.0000  -0.0000  -0.0000

          k = 0.2000 0.3464 0.1186 (  1522 PWs)   bands (ev):

   -11.9122 -11.9011  -4.1517  -4.1495  -2.6701  -2.6683   0.3679   0.5110
     9.6584   9.6944  12.4014  13.2177

     occupation numbers 
     1.0000   1.0000   1.0000   1.0000   1.0000   1.0000   1.0000   1.0000
    -0.0000  -0.0000  -0.0000  -0.0000

          k = 0.2000 0.4234 0.0000 (  1519 PWs)   bands (ev):

   -10.9330 -10.9006  -5.4329  -5.4199  -3.4891  -3.4800   1.3271   1.7409
     8.1370   8.2827  12.9642  15.2284

     occupation numbers 
     1.0000   1.0000   1.0000   1.0000   1.0000   1.0000   1.0000   1.0000
    -0.0000  -0.0000  -0.0000  -0.0000

          k = 0.2000 0.4234 0.0593 (  1524 PWs)   bands (ev):

   -10.9300 -10.9037  -5.4316  -5.4212  -3.4882  -3.4808   1.3643   1.6989
     8.1505   8.2684  13.1404  14.9353

     occupation numbers 
     1.0000   1.0000   1.0000   1.0000   1.0000   1.0000   1.0000   1.0000
    -0.0000  -0.0000  -0.0000  -0.0000

          k = 0.2000 0.4234 0.1186 (  1529 PWs)   bands (ev):

   -10.9219 -10.9119  -5.4284  -5.4244  -3.4860  -3.4831   1.4639   1.5916
     8.1863   8.2314  13.6265  14.2970

     occupation numbers 
     1.0000   1.0000   1.0000   1.0000   1.0000   1.0000   1.0000   1.0000
    -0.0000  -0.0000  -0.0000  -0.0000

          k = 0.2000 0.5004 0.0000 (  1523 PWs)   bands (ev):

    -9.7940  -9.7658  -6.8507  -6.8324  -3.9161  -3.9046   2.4994   2.8235
     6.7482   6.9156  14.5118  15.5428

     occupation numbers 
     1.0000   1.0000   1.0000   1.0000   1.0000   1.0000   1.0000   1.0000
    -0.0000  -0.0000  -0.0000  -0.0000

          k = 0.2000 0.5004 0.0593 (  1526 PWs)   bands (ev):

    -9.7913  -9.7685  -6.8490  -6.8341  -3.9151  -3.9057   2.5293   2.7915
     6.7625   6.8981  14.6292  15.5030

     occupation numbers 
     1.0000   1.0000   1.0000   1.0000   1.0000   1.0000   1.0000   1.0000
    -0.0000  -0.0000  -0.0000  -0.0000

          k = 0.2000 0.5004 0.1186 (  1533 PWs)   bands (ev):

    -9.7843  -9.7756  -6.8444  -6.8387  -3.9122  -3.9086   2.6086   2.7087
     6.8019   6.8538  14.9260  15.2721

     occupation numbers 
     1.0000   1.0000   1.0000   1.0000   1.0000   1.0000   1.0000   1.0000
    -0.0000  -0.0000  -0.0000  -0.0000

          k = 0.2000 0.5774 0.0000 (  1519 PWs)   bands (ev):

    -8.8666  -8.8527  -7.8751  -7.8655  -4.0491  -4.0369   3.2167   3.3842
     6.0637   6.1460  15.4675  15.6706

     occupation numbers 
     1.0000   1.0000   1.0000   1.0000   1.0000   1.0000   1.0000   1.0000
    -0.0001  -0.0000  -0.0000  -0.0000

          k = 0.2000 0.5774 0.0593 (  1533 PWs)   bands (ev):

    -8.8653  -8.8541  -7.8742  -7.8665  -4.0479  -4.0380   3.2339   3.3696
     6.0675   6.1345  15.4770  15.6279

     occupation numbers 
     1.0000   1.0000   1.0000   1.0000   1.0000   1.0000   1.0000   1.0000
    -0.0001  -0.0000  -0.0000  -0.0000

          k = 0.2000 0.5774 0.1186 (  1534 PWs)   bands (ev):

    -8.8618  -8.8575  -7.8719  -7.8690  -4.0449  -4.0411   3.2779   3.3298
     6.0818   6.1076  15.4876  15.5343

     occupation numbers 
     1.0000   1.0000   1.0000   1.0000   1.0000   1.0000   1.0000   1.0000
    -0.0000  -0.0000  -0.0000  -0.0000

          k = 0.2667 0.4619 0.0000 (  1529 PWs)   bands (ev):

    -9.8814  -9.8526  -6.2117  -6.2019  -4.6025  -4.5952   2.4737   2.8267
     6.8995   7.0413  14.3834  15.4957

     occupation numbers 
     1.0000   1.0000   1.0000   1.0000   1.0000   1.0000   1.0000   1.0000
    -0.0000  -0.0000  -0.0000  -0.0000

          k = 0.2667 0.4619 0.0593 (  1528 PWs)   bands (ev):

    -9.8787  -9.8554  -6.2107  -6.2028  -4.6018  -4.5959   2.5058   2.7913
     6.9129   7.0276  14.4852  15.3620

     occupation numbers 
     1.0000   1.0000   1.0000   1.0000   1.0000   1.0000   1.0000   1.0000
    -0.0000  -0.0000  -0.0000  -0.0000

          k = 0.2667 0.4619 0.1186 (  1537 PWs)   bands (ev):

    -9.8715  -9.8626  -6.2083  -6.2052  -4.6000  -4.5978   2.5915   2.7005
     6.9481   6.9919  14.7439  15.0664

     occupation numbers 
     1.0000   1.0000   1.0000   1.0000   1.0000   1.0000   1.0000   1.0000
    -0.0000  -0.0000  -0.0000  -0.0000

          k = 0.2667 0.5389 0.0000 (  1533 PWs)   bands (ev):

    -8.7493  -8.7267  -7.2523  -7.2383  -5.1423  -5.1314   3.5992   3.8416
     5.7822   5.9064  15.5690  15.9318

     occupation numbers 
     1.0000   1.0000   1.0000   1.0000   1.0000   1.0000   1.0001   1.0022
    -0.0018  -0.0004  -0.0000  -0.0000

          k = 0.2667 0.5389 0.0593 (  1529 PWs)   bands (ev):

    -8.7471  -8.7289  -7.2510  -7.2396  -5.1413  -5.1325   3.6224   3.8187
     5.7926   5.8931  15.4693  15.5545

     occupation numbers 
     1.0000   1.0000   1.0000   1.0000   1.0000   1.0000   1.0002   1.0017
    -0.0016  -0.0005  -0.0000  -0.0000

          k = 0.2667 0.5389 0.1186 (  1543 PWs)   bands (ev):

    -8.7415  -8.7346  -7.2475  -7.2432  -5.1386  -5.1352   3.6833   3.7583
     5.8213   5.8597  15.3350  15.3499

     occupation numbers 
     1.0000   1.0000   1.0000   1.0000   1.0000   1.0000   1.0004   1.0009
    -0.0012  -0.0008  -0.0000  -0.0000

          k = 0.3333 0.5774 0.0000 (  1527 PWs)   bands (ev):

    -7.8035  -7.7912  -7.7911  -7.7794  -5.7440  -5.7440   4.6448   4.7990
     4.7991   4.9615  15.4979  15.4985

     occupation numbers 
     1.0000   1.0000   1.0000   1.0000   1.0000   1.0000   0.7986   0.5035
     0.5033   0.1935  -0.0000  -0.0000

          k = 0.3333 0.5774 0.0593 (  1530 PWs)   bands (ev):

    -7.8013  -7.7912  -7.7911  -7.7817  -5.7441  -5.7440   4.6737   4.7997
     4.7997   4.9298  15.3766  15.3770

     occupation numbers 
     1.0000   1.0000   1.0000   1.0000   1.0000   1.0000   0.7497   0.5021
     0.5019   0.2465  -0.0000  -0.0000

          k = 0.3333 0.5774 0.1186 (  1551 PWs)   bands (ev):

    -7.7954  -7.7913  -7.7911  -7.7877  -5.7441  -5.7441   4.7505   4.8006
     4.8007   4.8483  15.2215  15.2216

     occupation numbers 
     1.0000   1.0000   1.0000   1.0000   1.0000   1.0000   0.6031   0.5001
     0.4999   0.4019  -0.0000  -0.0000

          k =-0.0667-0.0385 0.0000 (  1487 PWs)   bands (ev):

   -14.5954 -14.5505  -2.9357  -2.3748   1.3088   1.3113   1.5087   1.5109
     8.1071  11.6153  13.1360  13.1548

     occupation numbers 
     1.0000   1.0000   1.0000   1.0000   1.0000   1.0000   1.0000   1.0000
    -0.0000  -0.0000  -0.0000  -0.0000

          k =-0.0667-0.0385-0.0593 (  1491 PWs)   bands (ev):

   -14.5912 -14.5549  -2.8864  -2.4333   1.3090   1.3111   1.5089   1.5107
     8.3403  11.0454  13.1419  13.1539

     occupation numbers 
     1.0000   1.0000   1.0000   1.0000   1.0000   1.0000   1.0000   1.0000
    -0.0000  -0.0000  -0.0000  -0.0000

          k =-0.0667-0.0385-0.1186 (  1479 PWs)   bands (ev):

   -14.5800 -14.5661  -2.7536  -2.5809   1.3097   1.3104   1.5095   1.5102
     9.0008   9.9774  13.1476  13.1515

     occupation numbers 
     1.0000   1.0000   1.0000   1.0000   1.0000   1.0000   1.0000   1.0000
    -0.0000  -0.0000  -0.0000  -0.0000

          k =-0.1333-0.0770 0.0000 (  1491 PWs)   bands (ev):

   -14.2821 -14.2383  -2.5583  -2.0068   0.1843   0.1894   0.9482   0.9515
     8.5154  11.9847  13.1343  13.1783

     occupation numbers 
     1.0000   1.0000   1.0000   1.0000   1.0000   1.0000   1.0000   1.0000
    -0.0000  -0.0000  -0.0000  -0.0000

          k =-0.1333-0.0770-0.0593 (  1495 PWs)   bands (ev):

   -14.2779 -14.2425  -2.5098  -2.0643   0.1848   0.1890   0.9485   0.9511
     8.7460  11.4202  13.1503  13.1767

     occupation numbers 
     1.0000   1.0000   1.0000   1.0000   1.0000   1.0000   1.0000   1.0000
    -0.0000  -0.0000  -0.0000  -0.0000

          k =-0.1333-0.0770-0.1186 (  1496 PWs)   bands (ev):

   -14.2670 -14.2535  -2.3791  -2.2093   0.1861   0.1877   0.9493   0.9503
     9.3995  10.3651  13.1639  13.1719

     occupation numbers 
     1.0000   1.0000   1.0000   1.0000   1.0000   1.0000   1.0000   1.0000
    -0.0000  -0.0000  -0.0000  -0.0000

          k =-0.2000-0.1155 0.0000 (  1497 PWs)   bands (ev):

   -13.7623 -13.7204  -1.9366  -1.4019  -1.3579  -1.3494   0.2469   0.2509
     9.1954  12.5398  12.9746  13.0366

     occupation numbers 
     1.0000   1.0000   1.0000   1.0000   1.0000   1.0000   1.0000   1.0000
    -0.0000  -0.0000  -0.0000  -0.0000

          k =-0.2000-0.1155-0.0593 (  1502 PWs)   bands (ev):

   -13.7584 -13.7244  -1.8895  -1.4574  -1.3572  -1.3502   0.2473   0.2505
     9.4211  12.0122  12.9981  13.0351

     occupation numbers 
     1.0000   1.0000   1.0000   1.0000   1.0000   1.0000   1.0000   1.0000
    -0.0000  -0.0000  -0.0000  -0.0000

          k =-0.2000-0.1155-0.1186 (  1500 PWs)   bands (ev):

   -13.7480 -13.7350  -1.7625  -1.5978  -1.3550  -1.3523   0.2483   0.2495
    10.0598  10.9998  13.0141  13.0263

     occupation numbers 
     1.0000   1.0000   1.0000   1.0000   1.0000   1.0000   1.0000   1.0000
    -0.0000  -0.0000  -0.0000  -0.0000

          k =-0.2667-0.1540 0.0000 (  1501 PWs)   bands (ev):

   -13.0405 -13.0010  -3.0838  -3.0714  -1.0848  -0.5762  -0.4359  -0.4313
    10.1438  11.4649  11.6047  12.7162

     occupation numbers 
     1.0000   1.0000   1.0000   1.0000   1.0000   1.0000   1.0000   1.0000
    -0.0000  -0.0000  -0.0000  -0.0000

          k =-0.2667-0.1540-0.0593 (  1496 PWs)   bands (ev):

   -13.0368 -13.0048  -3.0826  -3.0726  -1.0398  -0.6288  -0.4355  -0.4318
    10.3550  11.4794  11.5864  12.6784

     occupation numbers 
     1.0000   1.0000   1.0000   1.0000   1.0000   1.0000   1.0000   1.0000
    -0.0000  -0.0000  -0.0000  -0.0000

          k =-0.2667-0.1540-0.1186 (  1505 PWs)   bands (ev):

   -13.0270 -13.0148  -3.0795  -3.0757  -0.9187  -0.7620  -0.4343  -0.4329
    10.9257  11.4266  11.6130  12.0477

     occupation numbers 
     1.0000   1.0000   1.0000   1.0000   1.0000   1.0000   1.0000   1.0000
    -0.0000  -0.0000  -0.0000  -0.0000

          k =-0.3333-0.1925 0.0000 (  1504 PWs)   bands (ev):

   -12.1242 -12.0877  -4.8420  -4.8255  -1.0041  -0.9993  -0.0336   0.4341
     9.5919   9.8077  11.3483  12.4533

     occupation numbers 
     1.0000   1.0000   1.0000   1.0000   1.0000   1.0000   1.0000   1.0000
    -0.0000  -0.0000  -0.0000  -0.0000

          k =-0.3333-0.1925-0.0593 (  1509 PWs)   bands (ev):

   -12.1208 -12.0913  -4.8404  -4.8271  -1.0037  -0.9997   0.0081   0.3861
     9.6061   9.7816  11.5657  12.4538

     occupation numbers 
     1.0000   1.0000   1.0000   1.0000   1.0000   1.0000   1.0000   1.0000
    -0.0000  -0.0000  -0.0000  -0.0000

          k =-0.3333-0.1925-0.1186 (  1509 PWs)   bands (ev):

   -12.1117 -12.1004  -4.8363  -4.8312  -1.0025  -1.0009   0.1200   0.2642
     9.6513   9.7189  12.1319  12.4367

     occupation numbers 
     1.0000   1.0000   1.0000   1.0000   1.0000   1.0000   1.0000   1.0000
    -0.0000  -0.0000  -0.0000  -0.0000

          k =-0.4000-0.2309 0.0000 (  1508 PWs)   bands (ev):

   -11.0296 -10.9970  -6.5336  -6.5132  -1.4051  -1.4000   1.1381   1.5337
     7.8289   8.0961  12.2327  12.2846

     occupation numbers 
     1.0000   1.0000   1.0000   1.0000   1.0000   1.0000   1.0000   1.0000
    -0.0000  -0.0000  -0.0000  -0.0000

          k =-0.4000-0.2309-0.0593 (  1514 PWs)   bands (ev):

   -11.0266 -11.0001  -6.5317  -6.5152  -1.4046  -1.4005   1.1739   1.4938
     7.8500   8.0663  12.2418  12.2841

     occupation numbers 
     1.0000   1.0000   1.0000   1.0000   1.0000   1.0000   1.0000   1.0000
    -0.0000  -0.0000  -0.0000  -0.0000

          k =-0.4000-0.2309-0.1186 (  1509 PWs)   bands (ev):

   -11.0184 -11.0083  -6.5266  -6.5203  -1.4034  -1.4018   1.2696   1.3917
     7.9099   7.9925  12.2593  12.2757

     occupation numbers 
     1.0000   1.0000   1.0000   1.0000   1.0000   1.0000   1.0000   1.0000
    -0.0000  -0.0000  -0.0000  -0.0000

          k =-0.4667-0.2694 0.0000 (  1510 PWs)   bands (ev):

    -9.8345  -9.8086  -8.0339  -8.0128  -1.6115  -1.6063   2.1603   2.4014
     6.5709   6.8262  12.1344  12.1995

     occupation numbers 
     1.0000   1.0000   1.0000   1.0000   1.0000   1.0000   1.0000   1.0000
    -0.0000  -0.0000  -0.0000  -0.0000

          k =-0.4667-0.2694-0.0593 (  1522 PWs)   bands (ev):

    -9.8321  -9.8111  -8.0319  -8.0149  -1.6110  -1.6068   2.1836   2.3787
     6.5890   6.7956  12.1407  12.1932

     occupation numbers 
     1.0000   1.0000   1.0000   1.0000   1.0000   1.0000   1.0000   1.0000
    -0.0000  -0.0000  -0.0000  -0.0000

          k =-0.4667-0.2694-0.1186 (  1522 PWs)   bands (ev):

    -9.8256  -9.8176  -8.0267  -8.0202  -1.6097  -1.6081   2.2443   2.3189
     6.6428   6.7217  12.1569  12.1770

     occupation numbers 
     1.0000   1.0000   1.0000   1.0000   1.0000   1.0000   1.0000   1.0000
    -0.0000  -0.0000  -0.0000  -0.0000

          k = 0.1333 0.0000 0.0000 (  1501 PWs)   bands (ev):

   -14.3864 -14.3423  -2.6838  -2.1291   0.5879   0.5905   1.0658   1.0677
     8.3794  11.8630  13.2933  13.3314

     occupation numbers 
     1.0000   1.0000   1.0000   1.0000   1.0000   1.0000   1.0000   1.0000
    -0.0000  -0.0000  -0.0000  -0.0000

          k = 0.1333 0.0000-0.0593 (  1493 PWs)   bands (ev):

   -14.3822 -14.3465  -2.6350  -2.1869   0.5881   0.5902   1.0660   1.0675
     8.6109  11.2965  13.3072  13.3300

     occupation numbers 
     1.0000   1.0000   1.0000   1.0000   1.0000   1.0000   1.0000   1.0000
    -0.0000  -0.0000  -0.0000  -0.0000

          k = 0.1333 0.0000-0.1186 (  1491 PWs)   bands (ev):

   -14.3712 -14.3576  -2.5036  -2.3328   0.5888   0.5896   1.0664   1.0670
     9.2669  10.2365  13.3193  13.3260

     occupation numbers 
     1.0000   1.0000   1.0000   1.0000   1.0000   1.0000   1.0000   1.0000
    -0.0000  -0.0000  -0.0000  -0.0000

          k =-0.1333-0.1540 0.0000 (  1502 PWs)   bands (ev):

   -13.9699 -13.9272  -2.1840  -1.6423  -0.6587  -0.6532   0.3460   0.3494
     8.9242  12.3462  13.4142  13.4737

     occupation numbers 
     1.0000   1.0000   1.0000   1.0000   1.0000   1.0000   1.0000   1.0000
    -0.0000  -0.0000  -0.0000  -0.0000

          k = 0.2000-0.0385 0.0000 (  1502 PWs)   bands (ev):

   -13.9699 -13.9272  -2.1840  -1.6424  -0.6573  -0.6517   0.3445   0.3479
     8.9242  12.3461  13.4118  13.4716

     occupation numbers 
     1.0000   1.0000   1.0000   1.0000   1.0000   1.0000   1.0000   1.0000
    -0.0000  -0.0000  -0.0000  -0.0000

          k =-0.1333-0.1540-0.0593 (  1499 PWs)   bands (ev):

   -13.9658 -13.9313  -2.1362  -1.6986  -0.6581  -0.6537   0.3464   0.3491
     9.1522  11.7911  13.4357  13.4716

     occupation numbers 
     1.0000   1.0000   1.0000   1.0000   1.0000   1.0000   1.0000   1.0000
    -0.0000  -0.0000  -0.0000  -0.0000

          k = 0.2000-0.0385-0.0593 (  1499 PWs)   bands (ev):

   -13.9658 -13.9313  -2.1363  -1.6987  -0.6567  -0.6523   0.3448   0.3476
     9.1522  11.7910  13.4333  13.4690

     occupation numbers 
     1.0000   1.0000   1.0000   1.0000   1.0000   1.0000   1.0000   1.0000
    -0.0000  -0.0000  -0.0000  -0.0000

          k =-0.1333-0.1540-0.1186 (  1500 PWs)   bands (ev):

   -13.9552 -13.9421  -2.0077  -1.8409  -0.6568  -0.6551   0.3472   0.3482
     9.7981  10.7516  13.4534  13.4645

     occupation numbers 
     1.0000   1.0000   1.0000   1.0000   1.0000   1.0000   1.0000   1.0000
    -0.0000  -0.0000  -0.0000  -0.0000

          k = 0.2000-0.0385-0.1186 (  1500 PWs)   bands (ev):

   -13.9552 -13.9421  -2.0078  -1.8410  -0.6554  -0.6536   0.3456   0.3467
     9.7981  10.7516  13.4511  13.4619

     occupation numbers 
     1.0000   1.0000   1.0000   1.0000   1.0000   1.0000   1.0000   1.0000
    -0.0000  -0.0000  -0.0000  -0.0000

          k =-0.2000-0.1925 0.0000 (  1500 PWs)   bands (ev):

   -13.3491 -13.3086  -2.2341  -2.2244  -1.4461  -0.9257  -0.4070  -0.4021
     9.7398  12.2442  12.3303  13.1477

     occupation numbers 
     1.0000   1.0000   1.0000   1.0000   1.0000   1.0000   1.0000   1.0000
    -0.0000  -0.0000  -0.0000  -0.0000

          k = 0.2667-0.0770 0.0000 (  1500 PWs)   bands (ev):

   -13.3491 -13.3086  -2.2335  -2.2238  -1.4462  -0.9257  -0.4077  -0.4029
     9.7398  12.2446  12.3307  13.1475

     occupation numbers 
     1.0000   1.0000   1.0000   1.0000   1.0000   1.0000   1.0000   1.0000
    -0.0000  -0.0000  -0.0000  -0.0000

          k =-0.2000-0.1925-0.0593 (  1506 PWs)   bands (ev):

   -13.3453 -13.3125  -2.2332  -2.2254  -1.4001  -0.9796  -0.4065  -0.4026
     9.9607  12.2026  12.2982  12.6709

     occupation numbers 
     1.0000   1.0000   1.0000   1.0000   1.0000   1.0000   1.0000   1.0000
    -0.0000  -0.0000  -0.0000  -0.0000

          k = 0.2667-0.0770-0.0593 (  1506 PWs)   bands (ev):

   -13.3453 -13.3125  -2.2326  -2.2247  -1.4002  -0.9796  -0.4072  -0.4033
     9.9607  12.2030  12.2986  12.6708

     occupation numbers 
     1.0000   1.0000   1.0000   1.0000   1.0000   1.0000   1.0000   1.0000
    -0.0000  -0.0000  -0.0000  -0.0000

          k =-0.2000-0.1925-0.1186 (  1503 PWs)   bands (ev):

   -13.3352 -13.3227  -2.2308  -2.2278  -1.2764  -1.1160  -0.4053  -0.4038
    10.5840  11.4857  12.3140  12.3735

     occupation numbers 
     1.0000   1.0000   1.0000   1.0000   1.0000   1.0000   1.0000   1.0000
    -0.0000  -0.0000  -0.0000  -0.0000

          k = 0.2667-0.0770-0.1186 (  1503 PWs)   bands (ev):

   -13.3352 -13.3227  -2.2301  -2.2271  -1.2764  -1.1161  -0.4060  -0.4045
    10.5840  11.4858  12.3144  12.3740

     occupation numbers 
     1.0000   1.0000   1.0000   1.0000   1.0000   1.0000   1.0000   1.0000
    -0.0000  -0.0000  -0.0000  -0.0000

          k =-0.2667-0.2309 0.0000 (  1518 PWs)   bands (ev):

   -12.5299 -12.4921  -3.9454  -3.9314  -1.0643  -1.0586  -0.4907  -0.0028
    10.4524  10.6196  10.8209  13.0348

     occupation numbers 
     1.0000   1.0000   1.0000   1.0000   1.0000   1.0000   1.0000   1.0000
    -0.0000  -0.0000  -0.0000  -0.0000

[...]
     7.7552   7.8217  13.8248  13.9585

     occupation numbers 
     1.0000   1.0000   1.0000   1.0000   1.0000   1.0000   1.0000   1.0000
    -0.0000  -0.0000  -0.0000  -0.0000

          k = 0.4667-0.1155-0.1186 (  1515 PWs)   bands (ev):

   -10.7275 -10.7177  -6.3246  -6.3187  -2.6220  -2.6193   1.6211   1.7409
     7.7557   7.8223  13.8242  13.9580

     occupation numbers 
     1.0000   1.0000   1.0000   1.0000   1.0000   1.0000   1.0000   1.0000
    -0.0000  -0.0000  -0.0000  -0.0000

          k =-0.4000-0.3849 0.0000 (  1523 PWs)   bands (ev):

    -9.5585  -9.5335  -7.7853  -7.7652  -2.8463  -2.8369   2.5334   2.7739
     6.4715   6.6681  13.8284  13.9286

     occupation numbers 
     1.0000   1.0000   1.0000   1.0000   1.0000   1.0000   1.0000   1.0000
    -0.0000  -0.0000  -0.0000  -0.0000

          k = 0.5333-0.1540 0.0000 (  1523 PWs)   bands (ev):

    -9.5585  -9.5335  -7.7852  -7.7652  -2.8463  -2.8370   2.5332   2.7737
     6.4717   6.6684  13.8283  13.9284

     occupation numbers 
     1.0000   1.0000   1.0000   1.0000   1.0000   1.0000   1.0000   1.0000
    -0.0000  -0.0000  -0.0000  -0.0000

          k =-0.4000-0.3849-0.0593 (  1519 PWs)   bands (ev):

    -9.5561  -9.5359  -7.7834  -7.7672  -2.8454  -2.8378   2.5566   2.7512
     6.4856   6.6449  13.8379  13.9188

     occupation numbers 
     1.0000   1.0000   1.0000   1.0000   1.0000   1.0000   1.0000   1.0000
    -0.0000  -0.0000  -0.0000  -0.0000

          k = 0.5333-0.1540-0.0593 (  1519 PWs)   bands (ev):

    -9.5561  -9.5359  -7.7833  -7.7671  -2.8454  -2.8379   2.5564   2.7511
     6.4859   6.6452  13.8377  13.9186

     occupation numbers 
     1.0000   1.0000   1.0000   1.0000   1.0000   1.0000   1.0000   1.0000
    -0.0000  -0.0000  -0.0000  -0.0000

          k =-0.4000-0.3849-0.1186 (  1518 PWs)   bands (ev):

    -9.5499  -9.5422  -7.7784  -7.7722  -2.8430  -2.8401   2.6171   2.6916
     6.5275   6.5885  13.8625  13.8933

     occupation numbers 
     1.0000   1.0000   1.0000   1.0000   1.0000   1.0000   1.0000   1.0000
    -0.0000  -0.0000  -0.0000  -0.0000

          k = 0.5333-0.1540-0.1186 (  1518 PWs)   bands (ev):

    -9.5499  -9.5421  -7.7783  -7.7721  -2.8431  -2.8402   2.6170   2.6914
     6.5278   6.5888  13.8624  13.8932

     occupation numbers 
     1.0000   1.0000   1.0000   1.0000   1.0000   1.0000   1.0000   1.0000
    -0.0000  -0.0000  -0.0000  -0.0000

          k = 0.4000-0.0000 0.0000 (  1515 PWs)   bands (ev):

   -11.9243 -11.8886  -4.1525  -4.1452  -2.6739  -2.6683   0.2153   0.6793
     9.6195   9.7361  11.6346  14.4776

     occupation numbers 
     1.0000   1.0000   1.0000   1.0000   1.0000   1.0000   1.0000   1.0000
    -0.0000  -0.0000  -0.0000  -0.0000

          k = 0.4000-0.0000-0.0593 (  1519 PWs)   bands (ev):

   -11.9210 -11.8920  -4.1518  -4.1459  -2.6734  -2.6689   0.2566   0.6317
     9.6305   9.7248  11.8358  14.0610

     occupation numbers 
     1.0000   1.0000   1.0000   1.0000   1.0000   1.0000   1.0000   1.0000
    -0.0000  -0.0000  -0.0000  -0.0000

          k = 0.4000-0.0000-0.1186 (  1522 PWs)   bands (ev):

   -11.9121 -11.9010  -4.1500  -4.1477  -2.6720  -2.6703   0.3676   0.5107
     9.6596   9.6956  12.4013  13.2175

     occupation numbers 
     1.0000   1.0000   1.0000   1.0000   1.0000   1.0000   1.0000   1.0000
    -0.0000  -0.0000  -0.0000  -0.0000

          k =-0.2667-0.3849 0.0000 (  1519 PWs)   bands (ev):

   -10.9330 -10.9006  -5.4322  -5.4193  -3.4898  -3.4807   1.3269   1.7407
     8.1375   8.2831  12.9642  15.6942

     occupation numbers 
     1.0000   1.0000   1.0000   1.0000   1.0000   1.0000   1.0000   1.0000
    -0.0000  -0.0000  -0.0000  -0.0000

          k = 0.4667-0.0385 0.0000 (  1519 PWs)   bands (ev):

   -10.9330 -10.9005  -5.4313  -5.4183  -3.4909  -3.4818   1.3265   1.7403
     8.1385   8.2841  12.9642  15.2275

     occupation numbers 
     1.0000   1.0000   1.0000   1.0000   1.0000   1.0000   1.0000   1.0000
    -0.0000  -0.0000  -0.0000  -0.0000

          k =-0.2667-0.3849-0.0593 (  1524 PWs)   bands (ev):

   -10.9300 -10.9037  -5.4310  -5.4205  -3.4890  -3.4816   1.3642   1.6987
     8.1509   8.2688  13.1404  14.9354

     occupation numbers 
     1.0000   1.0000   1.0000   1.0000   1.0000   1.0000   1.0000   1.0000
    -0.0000  -0.0000  -0.0000  -0.0000

          k = 0.4667-0.0385-0.0593 (  1524 PWs)   bands (ev):

   -10.9299 -10.9037  -5.4301  -5.4196  -3.4900  -3.4827   1.3638   1.6983
     8.1519   8.2698  13.1403  14.9346

     occupation numbers 
     1.0000   1.0000   1.0000   1.0000   1.0000   1.0000   1.0000   1.0000
    -0.0000  -0.0000  -0.0000  -0.0000

          k =-0.2667-0.3849-0.1186 (  1529 PWs)   bands (ev):

   -10.9219 -10.9119  -5.4277  -5.4237  -3.4867  -3.4839   1.4637   1.5914
     8.1867   8.2318  13.6266  14.2970

     occupation numbers 
     1.0000   1.0000   1.0000   1.0000   1.0000   1.0000   1.0000   1.0000
    -0.0000  -0.0000  -0.0000  -0.0000

          k = 0.4667-0.0385-0.1186 (  1529 PWs)   bands (ev):

   -10.9219 -10.9119  -5.4268  -5.4228  -3.4878  -3.4850   1.4633   1.5910
     8.1877   8.2328  13.6264  14.2965

     occupation numbers 
     1.0000   1.0000   1.0000   1.0000   1.0000   1.0000   1.0000   1.0000
    -0.0000  -0.0000  -0.0000  -0.0000

          k =-0.3333-0.4234 0.0000 (  1523 PWs)   bands (ev):

    -9.7941  -9.7659  -6.8497  -6.8314  -3.9172  -3.9056   2.4988   2.8228
     6.7494   6.9166  14.5119  15.5418

     occupation numbers 
     1.0000   1.0000   1.0000   1.0000   1.0000   1.0000   1.0000   1.0000
    -0.0000  -0.0000  -0.0000  -0.0000

          k = 0.5333-0.0770 0.0000 (  1523 PWs)   bands (ev):

    -9.7941  -9.7659  -6.8494  -6.8310  -3.9176  -3.9060   2.4984   2.8224
     6.7501   6.9174  14.5118  15.5418

     occupation numbers 
     1.0000   1.0000   1.0000   1.0000   1.0000   1.0000   1.0000   1.0000
    -0.0000  -0.0000  -0.0000  -0.0000

          k =-0.3333-0.4234-0.0593 (  1526 PWs)   bands (ev):

    -9.7914  -9.7686  -6.8480  -6.8331  -3.9161  -3.9067   2.5287   2.7908
     6.7637   6.8992  14.6293  15.5026

     occupation numbers 
     1.0000   1.0000   1.0000   1.0000   1.0000   1.0000   1.0000   1.0000
    -0.0000  -0.0000  -0.0000  -0.0000

          k = 0.5333-0.0770-0.0593 (  1526 PWs)   bands (ev):

    -9.7914  -9.7686  -6.8476  -6.8328  -3.9165  -3.9071   2.5283   2.7904
     6.7644   6.8999  14.6291  15.5020

     occupation numbers 
     1.0000   1.0000   1.0000   1.0000   1.0000   1.0000   1.0000   1.0000
    -0.0000  -0.0000  -0.0000  -0.0000

          k =-0.3333-0.4234-0.1186 (  1533 PWs)   bands (ev):

    -9.7844  -9.7757  -6.8434  -6.8377  -3.9132  -3.9096   2.6080   2.7081
     6.8031   6.8549  14.9259  15.2721

     occupation numbers 
     1.0000   1.0000   1.0000   1.0000   1.0000   1.0000   1.0000   1.0000
    -0.0000  -0.0000  -0.0000  -0.0000

          k = 0.5333-0.0770-0.1186 (  1533 PWs)   bands (ev):

    -9.7844  -9.7757  -6.8431  -6.8374  -3.9136  -3.9100   2.6076   2.7077
     6.8038   6.8556  14.9256  15.2713

     occupation numbers 
     1.0000   1.0000   1.0000   1.0000   1.0000   1.0000   1.0000   1.0000
    -0.0000  -0.0000  -0.0000  -0.0000

          k =-0.4000-0.4619 0.0000 (  1519 PWs)   bands (ev):

    -8.8675  -8.8537  -7.8731  -7.8636  -4.0503  -4.0381   3.2152   3.3828
     6.0658   6.1482  15.4668  15.6699

     occupation numbers 
     1.0000   1.0000   1.0000   1.0000   1.0000   1.0000   1.0000   1.0000
    -0.0001  -0.0000  -0.0000  -0.0000

          k =-0.4000-0.4619-0.0593 (  1533 PWs)   bands (ev):

    -8.8662  -8.8550  -7.8723  -7.8646  -4.0492  -4.0392   3.2324   3.3681
     6.0696   6.1366  15.4764  15.6271

     occupation numbers 
     1.0000   1.0000   1.0000   1.0000   1.0000   1.0000   1.0000   1.0000
    -0.0001  -0.0000  -0.0000  -0.0000

          k =-0.4000-0.4619-0.1186 (  1534 PWs)   bands (ev):

    -8.8627  -8.8584  -7.8700  -7.8670  -4.0461  -4.0423   3.2764   3.3284
     6.0840   6.1098  15.4869  15.5330

     occupation numbers 
     1.0000   1.0000   1.0000   1.0000   1.0000   1.0000   1.0000   1.0000
    -0.0000  -0.0000  -0.0000  -0.0000

          k = 0.5333 0.0000 0.0000 (  1529 PWs)   bands (ev):

    -9.8814  -9.8527  -6.2103  -6.2005  -4.6040  -4.5967   2.4730   2.8259
     6.9009   7.0426  14.3835  15.4947

     occupation numbers 
     1.0000   1.0000   1.0000   1.0000   1.0000   1.0000   1.0000   1.0000
    -0.0000  -0.0000  -0.0000  -0.0000

          k = 0.5333 0.0000-0.0593 (  1528 PWs)   bands (ev):

    -9.8787  -9.8554  -6.2093  -6.2014  -4.6033  -4.5974   2.5052   2.7906
     6.9143   7.0289  14.4851  15.3612

     occupation numbers 
     1.0000   1.0000   1.0000   1.0000   1.0000   1.0000   1.0000   1.0000
    -0.0000  -0.0000  -0.0000  -0.0000

          k = 0.5333 0.0000-0.1186 (  1537 PWs)   bands (ev):

    -9.8715  -9.8627  -6.2069  -6.2039  -4.6015  -4.5992   2.5908   2.6997
     6.9494   6.9932  14.7436  15.0657

     occupation numbers 
     1.0000   1.0000   1.0000   1.0000   1.0000   1.0000   1.0000   1.0000
    -0.0000  -0.0000  -0.0000  -0.0000

          k =-0.3333-0.5004 0.0000 (  1533 PWs)   bands (ev):

    -8.7496  -8.7270  -7.2513  -7.2372  -5.1431  -5.1322   3.5985   3.8408
     5.7833   5.9073  15.5686  15.9319

     occupation numbers 
     1.0000   1.0000   1.0000   1.0000   1.0000   1.0000   1.0001   1.0022
    -0.0017  -0.0004  -0.0000  -0.0000

          k = 0.6000-0.0385 0.0000 (  1533 PWs)   bands (ev):

    -8.7497  -8.7272  -7.2507  -7.2367  -5.1436  -5.1327   3.5979   3.8402
     5.7841   5.9082  15.5680  15.9319

     occupation numbers 
     1.0000   1.0000   1.0000   1.0000   1.0000   1.0000   1.0001   1.0022
    -0.0017  -0.0004  -0.0000  -0.0000

          k =-0.3333-0.5004-0.0593 (  1529 PWs)   bands (ev):

    -8.7474  -8.7292  -7.2500  -7.2386  -5.1421  -5.1333   3.6217   3.8179
     5.7937   5.8940  15.4688  15.5545

     occupation numbers 
     1.0000   1.0000   1.0000   1.0000   1.0000   1.0000   1.0002   1.0017
    -0.0016  -0.0005  -0.0000  -0.0000

          k = 0.6000-0.0385-0.0593 (  1529 PWs)   bands (ev):

    -8.7476  -8.7293  -7.2494  -7.2380  -5.1425  -5.1338   3.6211   3.8173
     5.7945   5.8949  15.4684  15.5543

     occupation numbers 
     1.0000   1.0000   1.0000   1.0000   1.0000   1.0000   1.0002   1.0017
    -0.0015  -0.0005  -0.0000  -0.0000

          k =-0.3333-0.5004-0.1186 (  1543 PWs)   bands (ev):

    -8.7418  -8.7349  -7.2465  -7.2422  -5.1394  -5.1360   3.6825   3.7575
     5.8223   5.8606  15.3347  15.3498

     occupation numbers 
     1.0000   1.0000   1.0000   1.0000   1.0000   1.0000   1.0004   1.0009
    -0.0011  -0.0007  -0.0000  -0.0000

          k = 0.6000-0.0385-0.1186 (  1543 PWs)   bands (ev):

    -8.7420  -8.7350  -7.2459  -7.2416  -5.1399  -5.1365   3.6819   3.7569
     5.8231   5.8615  15.3344  15.3494

     occupation numbers 
     1.0000   1.0000   1.0000   1.0000   1.0000   1.0000   1.0004   1.0009
    -0.0011  -0.0007  -0.0000  -0.0000

     the Fermi energy is     4.8007 ev

!    total energy              =     -49.71421970 Ry
     estimated scf accuracy    <          2.6E-10 Ry
     smearing contrib. (-TS)   =      -0.00023721 Ry
     internal energy E=F+TS    =     -49.71398249 Ry

     The total energy is F=E-TS. E is the sum of the following terms:
     one-electron contribution =     -29.91256248 Ry
     hartree contribution      =      21.73975859 Ry
     xc contribution           =     -18.53787607 Ry
     ewald contribution        =     -23.00330253 Ry

     convergence has been achieved in   7 iterations

     Forces acting on atoms (cartesian axes, Ry/au):

     atom    1 type  1   force =     0.00000000   -0.00028430    0.00000000
     atom    2 type  1   force =     0.00000000    0.00028430    0.00000000
     atom    3 type  1   force =     0.00000000    0.00028494    0.00000000
     atom    4 type  1   force =     0.00000000   -0.00028494    0.00000000
     The non-local contrib.  to forces
     atom    1 type  1   force =     0.00000000   -0.00025935    0.00000000
     atom    2 type  1   force =    -0.00000000    0.00025935    0.00000000
     atom    3 type  1   force =     0.00000000    0.00025952    0.00000000
     atom    4 type  1   force =     0.00000000   -0.00025952    0.00000000
     The ionic contribution  to forces
     atom    1 type  1   force =    -0.00000000   -0.00098176   -0.00000000
     atom    2 type  1   force =    -0.00000000    0.00098176    0.00000000
     atom    3 type  1   force =    -0.00000000    0.00098202   -0.00000000
     atom    4 type  1   force =     0.00000000   -0.00098202    0.00000000
     The local contribution  to forces
     atom    1 type  1   force =     0.00000000    0.00094818    0.00000000
     atom    2 type  1   force =    -0.00000000   -0.00094818    0.00000000
     atom    3 type  1   force =    -0.00000000   -0.00094870    0.00000000
     atom    4 type  1   force =    -0.00000000    0.00094870    0.00000000
     The core correction contribution to forces
     atom    1 type  1   force =     0.00000000    0.00000850   -0.00000000
     atom    2 type  1   force =    -0.00000000   -0.00000850   -0.00000000
     atom    3 type  1   force =    -0.00000000   -0.00000776   -0.00000000
     atom    4 type  1   force =     0.00000000    0.00000776   -0.00000000
     The Hubbard contrib.    to forces
     atom    1 type  1   force =     0.00000000    0.00000000    0.00000000
     atom    2 type  1   force =     0.00000000    0.00000000    0.00000000
     atom    3 type  1   force =     0.00000000    0.00000000    0.00000000
     atom    4 type  1   force =     0.00000000    0.00000000    0.00000000
     The SCF correction term to forces
     atom    1 type  1   force =     0.00000000    0.00000013    0.00000000
     atom    2 type  1   force =    -0.00000000   -0.00000013    0.00000000
     atom    3 type  1   force =    -0.00000000   -0.00000014    0.00000000
     atom    4 type  1   force =     0.00000000    0.00000014    0.00000000

     Total force =     0.000569     Total SCF correction =     0.000000


     Computing stress (Cartesian axis) and pressure

          total   stress  (Ry/bohr**3)                   (kbar)     P=      -12.29
  -0.00012601   0.00000000   0.00000000          -18.54        0.00        0.00
   0.00000000  -0.00012471   0.00000000            0.00      -18.34        0.00
   0.00000000   0.00000000   0.00000009            0.00        0.00        0.01

     kinetic stress (kbar)   9266.71     -0.00      0.00
                               -0.00   9265.99     -0.00
                                0.00     -0.00  10528.32

     local   stress (kbar) -26774.26      0.00      0.00
                                0.00 -26778.67      0.00
                                0.00      0.00  27091.49

     nonloc. stress (kbar)   1801.57      0.00      0.00
                                0.00   1801.73     -0.00
                                0.00      0.00   1655.18

     hartree stress (kbar)   9939.48     -0.00     -0.00
                               -0.00   9940.11     -0.00
                               -0.00     -0.00  -9112.05

     exc-cor stress (kbar)   -164.92     -0.00      0.00
                               -0.00   -164.89     -0.00
                                0.00     -0.00   -269.55

     corecor stress (kbar)  -2235.97     -0.00     -0.00
                               -0.00  -2235.99     -0.00
                               -0.00     -0.00  -2197.77

     ewald   stress (kbar)   8148.85     -0.00     -0.00
                               -0.00   8153.39      0.00
                               -0.00      0.00 -27695.59

     hubbard stress (kbar)      0.00      0.00      0.00
                                0.00      0.00      0.00
                                0.00      0.00      0.00

     DFT-D   stress (kbar)      0.00      0.00      0.00
                                0.00      0.00      0.00
                                0.00      0.00      0.00

     XDM     stress (kbar)      0.00      0.00      0.00
                                0.00      0.00      0.00
                                0.00      0.00      0.00

     dft-nl  stress (kbar)      0.00      0.00      0.00
                                0.00      0.00      0.00
                                0.00      0.00      0.00

     TS-vdW  stress (kbar)      0.00      0.00      0.00
                                0.00      0.00      0.00
                                0.00      0.00      0.00



     Writing output data file ./tmp/C.save/

     init_run     :      5.47s CPU      5.63s WALL (       1 calls)
     electrons    :     86.05s CPU     90.03s WALL (       1 calls)
     forces       :      2.36s CPU      2.39s WALL (       1 calls)
     stress       :      5.95s CPU      5.99s WALL (       1 calls)

     Called by init_run:
     wfcinit      :      4.44s CPU      4.54s WALL (       1 calls)
     wfcinit:atom :      0.15s CPU      0.15s WALL (     192 calls)
     wfcinit:wfcr :      3.46s CPU      3.54s WALL (     192 calls)
     potinit      :      0.25s CPU      0.28s WALL (       1 calls)
     hinit0       :      0.60s CPU      0.60s WALL (       1 calls)

     Called by electrons:
     c_bands      :     72.61s CPU     76.24s WALL (       7 calls)
     sum_band     :     11.72s CPU     12.03s WALL (       7 calls)
     v_of_rho     :      1.34s CPU      1.37s WALL (       8 calls)
     v_h          :      0.07s CPU      0.08s WALL (       8 calls)
     v_xc         :      1.67s CPU      1.70s WALL (      10 calls)
     newd         :      0.40s CPU      0.44s WALL (       8 calls)
     mix_rho      :      0.11s CPU      0.11s WALL (       7 calls)

     Called by c_bands:
     init_us_2    :      3.28s CPU      3.43s WALL (    3264 calls)
     cegterg      :     68.11s CPU     71.46s WALL (    1344 calls)

     Called by sum_band:
     sum_band:wei :      0.06s CPU      0.06s WALL (       7 calls)
     sum_band:loo :     11.00s CPU     11.27s WALL (       7 calls)
     sum_band:buf :      0.11s CPU      0.12s WALL (    1344 calls)
     sum_band:ini :      1.26s CPU      1.30s WALL (    1344 calls)
     sum_band:cal :      0.93s CPU      0.95s WALL (    1344 calls)
     sum_band:bec :      0.04s CPU      0.04s WALL (    1344 calls)
     addusdens    :      0.34s CPU      0.37s WALL (       7 calls)
     addusd:skk   :      0.01s CPU      0.01s WALL (       7 calls)
     addusd:dgemm :      0.07s CPU      0.09s WALL (       7 calls)
     addusd:qvan2 :      0.15s CPU      0.15s WALL (       7 calls)

     Called by *egterg:
     cdiaghg      :      2.62s CPU      2.74s WALL (    5956 calls)
     cegterg:over :      3.26s CPU      3.45s WALL (    4612 calls)
     cegterg:upda :      2.18s CPU      2.29s WALL (    4612 calls)
     cegterg:last :      3.40s CPU      3.55s WALL (    2922 calls)
     h_psi        :     54.11s CPU     56.78s WALL (    6148 calls)
     s_psi        :      3.01s CPU      3.15s WALL (    6148 calls)
     g_psi        :      0.70s CPU      0.72s WALL (    4612 calls)

     Called by h_psi:
     h_psi:calbec :      3.47s CPU      3.62s WALL (    6148 calls)
     vloc_psi     :     46.65s CPU     49.01s WALL (    6148 calls)
     add_vuspsi   :      3.37s CPU      3.50s WALL (    6148 calls)

     General routines
     calbec       :      5.21s CPU      5.41s WALL (    8452 calls)
     fft          :      0.96s CPU      0.97s WALL (     127 calls)
     ffts         :      0.02s CPU      0.02s WALL (      15 calls)
     fftw         :     43.64s CPU     45.79s WALL (  109026 calls)
     interpolate  :      0.08s CPU      0.08s WALL (       8 calls)

     Parallel routines

     PWSCF        :   1m40.12s CPU   1m44.54s WALL


   This run was terminated on:  17:24:32  23May2022            

=------------------------------------------------------------------------------=
   JOB DONE.
=------------------------------------------------------------------------------=
