
     Program PWSCF v.6.7MaX starts on 23May2022 at 17:16:50 

     This program is part of the open-source Quantum ESPRESSO suite
     for quantum simulation of materials; please cite
         "P. Giannozzi et al., J. Phys.:Condens. Matter 21 395502 (2009);
         "P. Giannozzi et al., J. Phys.:Condens. Matter 29 465901 (2017);
          URL http://www.quantum-espresso.org", 
     in publications or presentations arising from this work. More details at
     http://www.quantum-espresso.org/quote

     Parallel version (MPI), running on     1 processors

     MPI processes distributed on     1 nodes
     Waiting for input...
     Reading input from standard input

     Current dimensions of program PWSCF are:
     Max number of different atomic species (ntypx) = 10
     Max number of k-points (npk) =  40000
     Max angular momentum in pseudopotentials (lmaxx) =  3

     Subspace diagonalization in iterative solution of the eigenvalue problem:
     a serial algorithm will be used


     G-vector sticks info
     --------------------
     sticks:   dense  smooth     PW     G-vecs:    dense   smooth      PW
     Sum         547     265     85                34301    12031    2223



     bravais-lattice index     =            4
     lattice parameter (alat)  =       4.6676  a.u.
     unit-cell volume          =     297.0066 (a.u.)^3
     number of atoms/cell      =            4
     number of atomic types    =            1
     number of electrons       =        16.00
     number of Kohn-Sham states=           12
     kinetic-energy cutoff     =      45.0000  Ry
     charge density cutoff     =     360.0000  Ry
     scf convergence threshold =      1.0E-09
     mixing beta               =       0.7000
     number of iterations used =            8  plain     mixing
     Exchange-correlation= PBE
                           (   1   4   3   4   0   0   0)

     celldm(1)=   4.667624  celldm(2)=   1.000000  celldm(3)=   3.372470
     celldm(4)=   0.000000  celldm(5)=   0.000000  celldm(6)=   0.000000

     crystal axes: (cart. coord. in units of alat)
               a(1) = (   1.000000   0.000000   0.000000 )  
               a(2) = (  -0.500000   0.866025   0.000000 )  
               a(3) = (   0.000000   0.000000   3.372470 )  

     reciprocal axes: (cart. coord. in units 2 pi/alat)
               b(1) = (  1.000000  0.577350 -0.000000 )  
               b(2) = (  0.000000  1.154701  0.000000 )  
               b(3) = (  0.000000 -0.000000  0.296519 )  


     PseudoPot. # 1 for C  read from file:
     /home/max/Desktop/graphite_DFT/Pseudo/C.pbe-n-rrkjus_psl.1.0.0.UPF
     MD5 check sum: 1fdd950c42eb37d8afe3dd2f8d12311e
     Pseudo is Ultrasoft + core correction, Zval =  4.0
     Generated using &quot;atomic&quot; code by A. Dal Corso  v.6.3MaX
     Using radial grid of 1073 points,  4 beta functions with: 
                l(1) =   0
                l(2) =   0
                l(3) =   1
                l(4) =   1
     Q(r) pseudized with 0 coefficients 


     atomic species   valence    mass     pseudopotential
        C              4.00    12.01100     C ( 1.00)

      8 Sym. Ops., with inversion, found ( 4 have fractional translation)


                                    s                        frac. trans.

      isym =  1     identity                                     

 cryst.   s( 1) = (     1          0          0      )
                  (     0          1          0      )
                  (     0          0          1      )

 cart.    s( 1) = (  1.0000000  0.0000000  0.0000000 )
                  (  0.0000000  1.0000000  0.0000000 )
                  (  0.0000000  0.0000000  1.0000000 )


      isym =  2     180 deg rotation - cart. axis [0,0,1]        

 cryst.   s( 2) = (    -1          0          0      )    f =(  0.0000000 )
                  (     0         -1          0      )       (  0.0000000 )
                  (     0          0          1      )       ( -0.5000000 )

 cart.    s( 2) = ( -1.0000000  0.0000000  0.0000000 )    f =(  0.0000000 )
                  (  0.0000000 -1.0000000  0.0000000 )       (  0.0000000 )
                  (  0.0000000  0.0000000  1.0000000 )       ( -1.6862348 )


      isym =  3     180 deg rotation - cart. axis [0,1,0]        

 cryst.   s( 3) = (    -1          0          0      )    f =(  0.0000000 )
                  (     1          1          0      )       (  0.0000000 )
                  (     0          0         -1      )       (  0.5000000 )

 cart.    s( 3) = ( -1.0000000  0.0000000  0.0000000 )    f =(  0.0000000 )
                  (  0.0000000  1.0000000  0.0000000 )       (  0.0000000 )
                  (  0.0000000  0.0000000 -1.0000000 )       (  1.6862348 )


      isym =  4     180 deg rotation - cart. axis [1,0,0]        

 cryst.   s( 4) = (     1          0          0      )
                  (    -1         -1          0      )
                  (     0          0         -1      )

 cart.    s( 4) = (  1.0000000  0.0000000  0.0000000 )
                  (  0.0000000 -1.0000000  0.0000000 )
                  (  0.0000000  0.0000000 -1.0000000 )


      isym =  5     inversion                                    

 cryst.   s( 5) = (    -1          0          0      )
                  (     0         -1          0      )
                  (     0          0         -1      )

 cart.    s( 5) = ( -1.0000000  0.0000000  0.0000000 )
                  (  0.0000000 -1.0000000  0.0000000 )
                  (  0.0000000  0.0000000 -1.0000000 )


      isym =  6     inv. 180 deg rotation - cart. axis [0,0,1]   

 cryst.   s( 6) = (     1          0          0      )    f =(  0.0000000 )
                  (     0          1          0      )       (  0.0000000 )
                  (     0          0         -1      )       (  0.5000000 )

 cart.    s( 6) = (  1.0000000  0.0000000  0.0000000 )    f =(  0.0000000 )
                  (  0.0000000  1.0000000  0.0000000 )       (  0.0000000 )
                  (  0.0000000  0.0000000 -1.0000000 )       (  1.6862348 )


      isym =  7     inv. 180 deg rotation - cart. axis [0,1,0]   

 cryst.   s( 7) = (     1          0          0      )    f =(  0.0000000 )
                  (    -1         -1          0      )       (  0.0000000 )
                  (     0          0          1      )       ( -0.5000000 )

 cart.    s( 7) = (  1.0000000  0.0000000  0.0000000 )    f =(  0.0000000 )
                  (  0.0000000 -1.0000000  0.0000000 )       (  0.0000000 )
                  (  0.0000000  0.0000000  1.0000000 )       ( -1.6862348 )


      isym =  8     inv. 180 deg rotation - cart. axis [1,0,0]   

 cryst.   s( 8) = (    -1          0          0      )
                  (     1          1          0      )
                  (     0          0          1      )

 cart.    s( 8) = ( -1.0000000  0.0000000  0.0000000 )
                  (  0.0000000  1.0000000  0.0000000 )
                  (  0.0000000  0.0000000  1.0000000 )


     point group D_2h (mmm) 
     there are  8 classes
     the character table:

       E     C2    C2'   C2''  i     s_v   s_v'  s_v''
A_g    1.00  1.00  1.00  1.00  1.00  1.00  1.00  1.00
B_1g   1.00  1.00 -1.00 -1.00  1.00  1.00 -1.00 -1.00
B_2g   1.00 -1.00  1.00 -1.00  1.00 -1.00  1.00 -1.00
B_3g   1.00 -1.00 -1.00  1.00  1.00 -1.00 -1.00  1.00
A_u    1.00  1.00  1.00  1.00 -1.00 -1.00 -1.00 -1.00
B_1u   1.00  1.00 -1.00 -1.00 -1.00 -1.00  1.00  1.00
B_2u   1.00 -1.00  1.00 -1.00 -1.00  1.00 -1.00  1.00
B_3u   1.00 -1.00 -1.00  1.00 -1.00  1.00  1.00 -1.00

     the symmetry operations in each class and the name of the first element:

     E        1
          identity                                               
     C2       2
          180 deg rotation - cart. axis [0,0,1]                  
     C2'      4
          180 deg rotation - cart. axis [1,0,0]                  
     C2''     3
          180 deg rotation - cart. axis [0,1,0]                  
     i        5
          inversion                                              
     s_v      6
          inv. 180 deg rotation - cart. axis [0,0,1]             
     s_v'     8
          inv. 180 deg rotation - cart. axis [1,0,0]             
     s_v''    7
          inv. 180 deg rotation - cart. axis [0,1,0]             

   Cartesian axes

     site n.     atom                  positions (alat units)
         1           C   tau(   1) = (   0.0000000   0.0000000   0.8431174  )
         2           C   tau(   2) = (   0.0000000   0.0000000   2.5293522  )
         3           C   tau(   3) = (   0.0000000   0.5772925   0.8431174  )
         4           C   tau(   4) = (   0.5000000   0.2887329   2.5293522  )

   Crystallographic axes

     site n.     atom                  positions (cryst. coord.)
         1           C   tau(   1) = (  0.0000000  0.0000000  0.2500000  )
         2           C   tau(   2) = (  0.0000000  0.0000000  0.7500000  )
         3           C   tau(   3) = (  0.3333000  0.6666000  0.2500000  )
         4           C   tau(   4) = (  0.6667000  0.3334000  0.7500000  )

     number of k points=    50  Methfessel-Paxton smearing, width (Ry)=  0.0300
                       cart. coord. in units 2pi/alat
        k(    1) = (   0.0000000   0.0000000   0.0000000), wk =   0.0082305
        k(    2) = (   0.0000000   0.0000000   0.0988395), wk =   0.0164609
        k(    3) = (   0.0000000   0.1283001   0.0000000), wk =   0.0164609
        k(    4) = (   0.0000000   0.1283001   0.0988395), wk =   0.0329218
        k(    5) = (   0.0000000   0.2566001   0.0000000), wk =   0.0164609
        k(    6) = (   0.0000000   0.2566001   0.0988395), wk =   0.0329218
        k(    7) = (   0.0000000   0.3849002   0.0000000), wk =   0.0164609
        k(    8) = (   0.0000000   0.3849002   0.0988395), wk =   0.0329218
        k(    9) = (   0.0000000   0.5132002   0.0000000), wk =   0.0164609
        k(   10) = (   0.0000000   0.5132002   0.0988395), wk =   0.0329218
        k(   11) = (   0.1111111   0.1924501   0.0000000), wk =   0.0329218
        k(   12) = (   0.1111111   0.1924501   0.0988395), wk =   0.0658436
        k(   13) = (   0.1111111   0.3207501   0.0000000), wk =   0.0329218
        k(   14) = (   0.1111111   0.3207501   0.0988395), wk =   0.0658436
        k(   15) = (   0.1111111   0.4490502   0.0000000), wk =   0.0329218
        k(   16) = (   0.1111111   0.4490502   0.0988395), wk =   0.0658436
        k(   17) = (   0.1111111   0.5773503   0.0000000), wk =   0.0164609
        k(   18) = (   0.1111111   0.5773503   0.0988395), wk =   0.0329218
        k(   19) = (   0.2222222   0.3849002   0.0000000), wk =   0.0329218
        k(   20) = (   0.2222222   0.3849002   0.0988395), wk =   0.0658436
        k(   21) = (   0.2222222   0.5132002   0.0000000), wk =   0.0329218
        k(   22) = (   0.2222222   0.5132002   0.0988395), wk =   0.0658436
        k(   23) = (   0.3333333   0.5773503   0.0000000), wk =   0.0164609
        k(   24) = (   0.3333333   0.5773503   0.0988395), wk =   0.0329218
        k(   25) = (  -0.1111111  -0.0641500   0.0000000), wk =   0.0329218
        k(   26) = (  -0.1111111  -0.0641500  -0.0988395), wk =   0.0658436
        k(   27) = (  -0.2222222  -0.1283001   0.0000000), wk =   0.0329218
        k(   28) = (  -0.2222222  -0.1283001  -0.0988395), wk =   0.0658436
        k(   29) = (  -0.3333333  -0.1924501   0.0000000), wk =   0.0329218
        k(   30) = (  -0.3333333  -0.1924501  -0.0988395), wk =   0.0658436
        k(   31) = (  -0.4444444  -0.2566001   0.0000000), wk =   0.0329218
        k(   32) = (  -0.4444444  -0.2566001  -0.0988395), wk =   0.0658436
        k(   33) = (   0.2222222  -0.0000000   0.0000000), wk =   0.0164609
        k(   34) = (   0.2222222  -0.0000000  -0.0988395), wk =   0.0329218
        k(   35) = (  -0.2222222  -0.2566001   0.0000000), wk =   0.0329218
        k(   36) = (   0.3333333  -0.0641500   0.0000000), wk =   0.0329218
        k(   37) = (  -0.2222222  -0.2566001  -0.0988395), wk =   0.0658436
        k(   38) = (   0.3333333  -0.0641500  -0.0988395), wk =   0.0658436
        k(   39) = (  -0.3333333  -0.3207501   0.0000000), wk =   0.0329218
        k(   40) = (   0.4444444  -0.1283001   0.0000000), wk =   0.0329218
        k(   41) = (  -0.3333333  -0.3207501  -0.0988395), wk =   0.0658436
        k(   42) = (   0.4444444  -0.1283001  -0.0988395), wk =   0.0658436
        k(   43) = (  -0.4444444  -0.3849002   0.0000000), wk =   0.0329218
        k(   44) = (  -0.4444444  -0.3849002  -0.0988395), wk =   0.0658436
        k(   45) = (   0.4444444  -0.0000000   0.0000000), wk =   0.0164609
        k(   46) = (   0.4444444  -0.0000000  -0.0988395), wk =   0.0329218
        k(   47) = (  -0.3333333  -0.4490502   0.0000000), wk =   0.0329218
        k(   48) = (   0.5555556  -0.0641500   0.0000000), wk =   0.0329218
        k(   49) = (  -0.3333333  -0.4490502  -0.0988395), wk =   0.0658436
        k(   50) = (   0.5555556  -0.0641500  -0.0988395), wk =   0.0658436

                       cryst. coord.
        k(    1) = (   0.0000000   0.0000000   0.0000000), wk =   0.0082305
        k(    2) = (   0.0000000   0.0000000   0.3333333), wk =   0.0164609
        k(    3) = (   0.0000000   0.1111111   0.0000000), wk =   0.0164609
        k(    4) = (   0.0000000   0.1111111   0.3333333), wk =   0.0329218
        k(    5) = (   0.0000000   0.2222222   0.0000000), wk =   0.0164609
        k(    6) = (   0.0000000   0.2222222   0.3333333), wk =   0.0329218
        k(    7) = (   0.0000000   0.3333333   0.0000000), wk =   0.0164609
        k(    8) = (   0.0000000   0.3333333   0.3333333), wk =   0.0329218
        k(    9) = (   0.0000000   0.4444444   0.0000000), wk =   0.0164609
        k(   10) = (   0.0000000   0.4444444   0.3333333), wk =   0.0329218
        k(   11) = (   0.1111111   0.1111111   0.0000000), wk =   0.0329218
        k(   12) = (   0.1111111   0.1111111   0.3333333), wk =   0.0658436
        k(   13) = (   0.1111111   0.2222222   0.0000000), wk =   0.0329218
        k(   14) = (   0.1111111   0.2222222   0.3333333), wk =   0.0658436
        k(   15) = (   0.1111111   0.3333333   0.0000000), wk =   0.0329218
        k(   16) = (   0.1111111   0.3333333   0.3333333), wk =   0.0658436
        k(   17) = (   0.1111111   0.4444444   0.0000000), wk =   0.0164609
        k(   18) = (   0.1111111   0.4444444   0.3333333), wk =   0.0329218
        k(   19) = (   0.2222222   0.2222222   0.0000000), wk =   0.0329218
        k(   20) = (   0.2222222   0.2222222   0.3333333), wk =   0.0658436
        k(   21) = (   0.2222222   0.3333333   0.0000000), wk =   0.0329218
        k(   22) = (   0.2222222   0.3333333   0.3333333), wk =   0.0658436
        k(   23) = (   0.3333333   0.3333333   0.0000000), wk =   0.0164609
        k(   24) = (   0.3333333   0.3333333   0.3333333), wk =   0.0329218
        k(   25) = (  -0.1111111   0.0000000   0.0000000), wk =   0.0329218
        k(   26) = (  -0.1111111   0.0000000  -0.3333333), wk =   0.0658436
        k(   27) = (  -0.2222222   0.0000000   0.0000000), wk =   0.0329218
        k(   28) = (  -0.2222222   0.0000000  -0.3333333), wk =   0.0658436
        k(   29) = (  -0.3333333  -0.0000000   0.0000000), wk =   0.0329218
        k(   30) = (  -0.3333333  -0.0000000  -0.3333333), wk =   0.0658436
        k(   31) = (  -0.4444444   0.0000000   0.0000000), wk =   0.0329218
        k(   32) = (  -0.4444444   0.0000000  -0.3333333), wk =   0.0658436
        k(   33) = (   0.2222222  -0.1111111   0.0000000), wk =   0.0164609
        k(   34) = (   0.2222222  -0.1111111  -0.3333333), wk =   0.0329218
        k(   35) = (  -0.2222222  -0.1111111   0.0000000), wk =   0.0329218
        k(   36) = (   0.3333333  -0.2222222   0.0000000), wk =   0.0329218
        k(   37) = (  -0.2222222  -0.1111111  -0.3333333), wk =   0.0658436
        k(   38) = (   0.3333333  -0.2222222  -0.3333333), wk =   0.0658436
        k(   39) = (  -0.3333333  -0.1111111   0.0000000), wk =   0.0329218
        k(   40) = (   0.4444444  -0.3333333   0.0000000), wk =   0.0329218
        k(   41) = (  -0.3333333  -0.1111111  -0.3333333), wk =   0.0658436
        k(   42) = (   0.4444444  -0.3333333  -0.3333333), wk =   0.0658436
        k(   43) = (  -0.4444444  -0.1111111   0.0000000), wk =   0.0329218
        k(   44) = (  -0.4444444  -0.1111111  -0.3333333), wk =   0.0658436
        k(   45) = (   0.4444444  -0.2222222   0.0000000), wk =   0.0164609
        k(   46) = (   0.4444444  -0.2222222  -0.3333333), wk =   0.0329218
        k(   47) = (  -0.3333333  -0.2222222   0.0000000), wk =   0.0329218
        k(   48) = (   0.5555556  -0.3333333   0.0000000), wk =   0.0329218
        k(   49) = (  -0.3333333  -0.2222222  -0.3333333), wk =   0.0658436
        k(   50) = (   0.5555556  -0.3333333  -0.3333333), wk =   0.0658436

     Dense  grid:    34301 G-vectors     FFT dimensions: (  30,  30,  96)

     Smooth grid:    12031 G-vectors     FFT dimensions: (  20,  20,  72)

     Dynamical RAM for                 wfc:       0.28 MB

     Dynamical RAM for     wfc (w. buffer):      14.14 MB

     Dynamical RAM for           str. fact:       0.52 MB

     Dynamical RAM for           local pot:       0.00 MB

     Dynamical RAM for          nlocal pot:       0.74 MB

     Dynamical RAM for                qrad:       0.44 MB

     Dynamical RAM for          rho,v,vnew:       3.55 MB

     Dynamical RAM for               rhoin:       1.18 MB

     Dynamical RAM for            rho*nmix:       8.37 MB

     Dynamical RAM for           G-vectors:       2.05 MB

     Dynamical RAM for          h,s,v(r/c):       0.03 MB

     Dynamical RAM for          <psi|beta>:       0.01 MB

     Dynamical RAM for                 psi:       0.55 MB

     Dynamical RAM for                hpsi:       0.55 MB

     Dynamical RAM for                spsi:       0.55 MB

     Dynamical RAM for      wfcinit/wfcrot:       0.75 MB

     Dynamical RAM for           addusdens:      24.60 MB

     Dynamical RAM for          addusforce:      28.00 MB

     Dynamical RAM for         addusstress:      26.17 MB

     Estimated static dynamical RAM per process >      35.34 MB

     Estimated max dynamical RAM per process >      63.34 MB

     Check: negative core charge=   -0.000010

     Initial potential from superposition of free atoms

     starting charge   15.99983, renormalised to   16.00000
     Starting wfcs are   16 randomized atomic wfcs

     total cpu time spent up to now is        2.3 secs

     Self-consistent Calculation

     iteration #  1     ecut=    45.00 Ry     beta= 0.70
     Davidson diagonalization with overlap
     ethr =  1.00E-02,  avg # of iterations =  2.8

     total cpu time spent up to now is        5.8 secs

     total energy              =     -49.66121113 Ry
     estimated scf accuracy    <       0.37729701 Ry

     iteration #  2     ecut=    45.00 Ry     beta= 0.70
     Davidson diagonalization with overlap
     ethr =  2.36E-03,  avg # of iterations =  2.9

     total cpu time spent up to now is        8.7 secs

     total energy              =     -49.71245769 Ry
     estimated scf accuracy    <       0.00438478 Ry

     iteration #  3     ecut=    45.00 Ry     beta= 0.70
     Davidson diagonalization with overlap
     ethr =  2.74E-05,  avg # of iterations =  7.1

     total cpu time spent up to now is       12.6 secs

     total energy              =     -49.71281526 Ry
     estimated scf accuracy    <       0.00031460 Ry

     iteration #  4     ecut=    45.00 Ry     beta= 0.70
     Davidson diagonalization with overlap
     ethr =  1.97E-06,  avg # of iterations =  3.5

     total cpu time spent up to now is       15.4 secs

     total energy              =     -49.71283390 Ry
     estimated scf accuracy    <       0.00000191 Ry

     iteration #  5     ecut=    45.00 Ry     beta= 0.70
     Davidson diagonalization with overlap
     ethr =  1.19E-08,  avg # of iterations =  3.0

     total cpu time spent up to now is       18.5 secs

     total energy              =     -49.71283508 Ry
     estimated scf accuracy    <       0.00000022 Ry

     iteration #  6     ecut=    45.00 Ry     beta= 0.70
     Davidson diagonalization with overlap
     ethr =  1.39E-09,  avg # of iterations =  2.0

     total cpu time spent up to now is       21.4 secs

     total energy              =     -49.71283514 Ry
     estimated scf accuracy    <       0.00000003 Ry

     iteration #  7     ecut=    45.00 Ry     beta= 0.70
     Davidson diagonalization with overlap
     ethr =  1.66E-10,  avg # of iterations =  2.0

     total cpu time spent up to now is       24.3 secs

     End of self-consistent calculation

          k = 0.0000 0.0000 0.0000 (  1497 PWs)   bands (ev):

   -14.7003 -14.6550  -3.0623  -2.4983   1.7287   1.7301   1.7329   1.7344
     7.9709  11.4903  13.0930  13.0989

     occupation numbers 
     1.0000   1.0000   1.0000   1.0000   1.0000   1.0000   1.0000   1.0000
    -0.0000  -0.0000  -0.0000  -0.0000

          k = 0.0000 0.0000 0.0988 (  1462 PWs)   bands (ev):

   -14.6890 -14.6664  -2.9309  -2.6498   1.7291   1.7298   1.7333   1.7341
     8.6045  10.2120  13.0949  13.1002

     occupation numbers 
     1.0000   1.0000   1.0000   1.0000   1.0000   1.0000   1.0000   1.0000
    -0.0000  -0.0000  -0.0000  -0.0000

          k = 0.0000 0.1283 0.0000 (  1493 PWs)   bands (ev):

   -14.4098 -14.3656  -2.7118  -2.1564   0.6168   0.6210   1.1630   1.1660
     8.3488  11.8351  13.1539  13.1896

     occupation numbers 
     1.0000   1.0000   1.0000   1.0000   1.0000   1.0000   1.0000   1.0000
    -0.0000  -0.0000  -0.0000  -0.0000

          k = 0.0000 0.1283 0.0988 (  1496 PWs)   bands (ev):

   -14.3988 -14.3767  -2.5823  -2.3055   0.6179   0.6200   1.1637   1.1652
     8.9763  10.5682  13.1748  13.1859

     occupation numbers 
     1.0000   1.0000   1.0000   1.0000   1.0000   1.0000   1.0000   1.0000
    -0.0000  -0.0000  -0.0000  -0.0000

          k = 0.0000 0.2566 0.0000 (  1503 PWs)   bands (ev):

   -13.5441 -13.5029  -1.9237  -1.9139  -1.6772  -1.1500   0.0133   0.0175
     9.4818  12.5444  12.7238  12.8956

     occupation numbers 
     1.0000   1.0000   1.0000   1.0000   1.0000   1.0000   1.0000   1.0000
    -0.0000  -0.0000  -0.0000  -0.0000

          k = 0.0000 0.2566 0.0988 (  1501 PWs)   bands (ev):

   -13.5339 -13.5133  -1.9213  -1.9163  -1.5539  -1.2910   0.0143   0.0164
    10.0851  11.5894  12.7304  12.8124

     occupation numbers 
     1.0000   1.0000   1.0000   1.0000   1.0000   1.0000   1.0000   1.0000
    -0.0000  -0.0000  -0.0000  -0.0000

          k = 0.0000 0.3849 0.0000 (  1504 PWs)   bands (ev):

   -12.1244 -12.0880  -4.8434  -4.8269  -1.0027  -0.9978  -0.0334   0.4344
     9.5905   9.8064  11.3481  12.4540

     occupation numbers 
     1.0000   1.0000   1.0000   1.0000   1.0000   1.0000   1.0000   1.0000
    -0.0000  -0.0000  -0.0000  -0.0000

          k = 0.0000 0.3849 0.0988 (  1508 PWs)   bands (ev):

   -12.1154 -12.0972  -4.8393  -4.8310  -1.0014  -0.9990   0.0770   0.3104
     9.6316   9.7407  11.9205  12.4491

     occupation numbers 
     1.0000   1.0000   1.0000   1.0000   1.0000   1.0000   1.0000   1.0000
    -0.0000  -0.0000  -0.0000  -0.0000

          k = 0.0000 0.5132 0.0000 (  1510 PWs)   bands (ev):

   -10.2279 -10.1987  -7.5750  -7.5530  -1.5640  -1.5588   1.8740   2.1794
     6.8890   7.1578  12.1589  12.2217

     occupation numbers 
     1.0000   1.0000   1.0000   1.0000   1.0000   1.0000   1.0000   1.0000
    -0.0000  -0.0000  -0.0000  -0.0000

          k = 0.0000 0.5132 0.0988 (  1515 PWs)   bands (ev):

   -10.2207 -10.2060  -7.5695  -7.5585  -1.5627  -1.5601   1.9490   2.1017
     6.9445   7.0790  12.1749  12.2063

     occupation numbers 
     1.0000   1.0000   1.0000   1.0000   1.0000   1.0000   1.0000   1.0000
    -0.0000  -0.0000  -0.0000  -0.0000

          k = 0.1111 0.1925 0.0000 (  1503 PWs)   bands (ev):

   -13.8317 -13.7895  -2.0187  -1.4815  -0.9333  -0.9293   0.0252   0.0280
     9.1060  12.5083  13.5068  13.7406

     occupation numbers 
     1.0000   1.0000   1.0000   1.0000   1.0000   1.0000   1.0000   1.0000
    -0.0000  -0.0000  -0.0000  -0.0000

          k = 0.1111 0.1925 0.0988 (  1508 PWs)   bands (ev):

   -13.8213 -13.8002  -1.8931  -1.6253  -0.9323  -0.9303   0.0259   0.0273
     9.7203  11.2757  13.5219  13.5569

     occupation numbers 
     1.0000   1.0000   1.0000   1.0000   1.0000   1.0000   1.0000   1.0000
    -0.0000  -0.0000  -0.0000  -0.0000

          k = 0.1111 0.3208 0.0000 (  1514 PWs)   bands (ev):

   -12.6889 -12.6506  -3.3759  -3.3647  -1.3526  -1.3463  -0.6707  -0.1752
    10.6144  10.8779  11.0046  13.8472

     occupation numbers 
     1.0000   1.0000   1.0000   1.0000   1.0000   1.0000   1.0000   1.0000
    -0.0000  -0.0000  -0.0000  -0.0000

          k = 0.1111 0.3208 0.0988 (  1511 PWs)   bands (ev):

   -12.6794 -12.6602  -3.3731  -3.3675  -1.3510  -1.3479  -0.5543  -0.3071
    10.8780  10.9627  11.2340  12.6741

     occupation numbers 
     1.0000   1.0000   1.0000   1.0000   1.0000   1.0000   1.0000   1.0000
    -0.0000  -0.0000  -0.0000  -0.0000

          k = 0.1111 0.4491 0.0000 (  1522 PWs)   bands (ev):

   -11.0195 -10.9868  -6.1247  -6.1059  -2.2305  -2.2226   1.1880   1.5940
     8.0009   8.2254  12.8309  13.4980

     occupation numbers 
     1.0000   1.0000   1.0000   1.0000   1.0000   1.0000   1.0000   1.0000
    -0.0000  -0.0000  -0.0000  -0.0000

          k = 0.1111 0.4491 0.0988 (  1516 PWs)   bands (ev):

   -11.0114 -10.9950  -6.1200  -6.1106  -2.2286  -2.2246   1.2848   1.4876
     8.0510   8.1635  13.2979  13.5080

     occupation numbers 
     1.0000   1.0000   1.0000   1.0000   1.0000   1.0000   1.0000   1.0000
    -0.0000  -0.0000  -0.0000  -0.0000

          k = 0.1111 0.5774 0.0000 (  1521 PWs)   bands (ev):

    -9.2847  -9.2701  -8.2455  -8.2341  -2.5295  -2.5211   2.6242   2.7954
     6.3148   6.5059  13.3380  13.4267

     occupation numbers 
     1.0000   1.0000   1.0000   1.0000   1.0000   1.0000   1.0000   1.0000
    -0.0000  -0.0000  -0.0000  -0.0000

          k = 0.1111 0.5774 0.0988 (  1522 PWs)   bands (ev):

    -9.2810  -9.2737  -8.2428  -8.2371  -2.5274  -2.5232   2.6693   2.7552
     6.3498   6.4456  13.3596  13.4039

     occupation numbers 
     1.0000   1.0000   1.0000   1.0000   1.0000   1.0000   1.0000   1.0000
    -0.0000  -0.0000  -0.0000  -0.0000

          k = 0.2222 0.3849 0.0000 (  1507 PWs)   bands (ev):

   -11.2936 -11.2599  -4.8874  -4.8792  -3.3518  -3.3454   0.9309   1.3651
     8.6656   8.7916  12.4796  14.9621

     occupation numbers 
     1.0000   1.0000   1.0000   1.0000   1.0000   1.0000   1.0000   1.0000
    -0.0000  -0.0000  -0.0000  -0.0000

          k = 0.2222 0.3849 0.0988 (  1518 PWs)   bands (ev):

   -11.2853 -11.2684  -4.8854  -4.8813  -3.3502  -3.3471   1.0338   1.2505
     8.6970   8.7600  12.9792  14.1671

     occupation numbers 
     1.0000   1.0000   1.0000   1.0000   1.0000   1.0000   1.0000   1.0000
    -0.0000  -0.0000  -0.0000  -0.0000

          k = 0.2222 0.5132 0.0000 (  1529 PWs)   bands (ev):

    -9.4520  -9.4254  -6.9923  -6.9747  -4.3501  -4.3381   2.8589   3.1576
     6.4325   6.5816  14.9794  16.0893

     occupation numbers 
     1.0000   1.0000   1.0000   1.0000   1.0000   1.0000   1.0000   1.0000
    -0.0000  -0.0000  -0.0000  -0.0000

          k = 0.2222 0.5132 0.0988 (  1533 PWs)   bands (ev):

    -9.4454  -9.4321  -6.9879  -6.9791  -4.3471  -4.3411   2.9320   3.0813
     6.4667   6.5414  15.1283  15.4607

     occupation numbers 
     1.0000   1.0000   1.0000   1.0000   1.0000   1.0000   1.0000   1.0000
    -0.0000  -0.0000  -0.0000  -0.0000

          k = 0.3333 0.5774 0.0000 (  1527 PWs)   bands (ev):

    -7.8037  -7.7914  -7.7913  -7.7795  -5.7442  -5.7442   4.6446   4.7989
     4.7990   4.9614  15.4977  15.4983

     occupation numbers 
     1.0000   1.0000   1.0000   1.0000   1.0000   1.0000   0.7982   0.5029
     0.5027   0.1932  -0.0000  -0.0000

          k = 0.3333 0.5774 0.0988 (  1542 PWs)   bands (ev):

    -7.7978  -7.7914  -7.7913  -7.7856  -5.7443  -5.7443   4.7208   4.8003
     4.8003   4.8790  15.2605  15.2607

     occupation numbers 
     1.0000   1.0000   1.0000   1.0000   1.0000   1.0000   0.6614   0.5001
     0.4999   0.3401  -0.0000  -0.0000

          k =-0.1111-0.0642 0.0000 (  1493 PWs)   bands (ev):

   -14.4098 -14.3656  -2.7119  -2.1565   0.6194   0.6236   1.1603   1.1632
     8.3488  11.8351  13.1508  13.1865

     occupation numbers 
     1.0000   1.0000   1.0000   1.0000   1.0000   1.0000   1.0000   1.0000
    -0.0000  -0.0000  -0.0000  -0.0000

          k =-0.1111-0.0642-0.0988 (  1496 PWs)   bands (ev):

   -14.3988 -14.3767  -2.5824  -2.3055   0.6205   0.6226   1.1610   1.1625
     8.9763  10.5681  13.1717  13.1829

     occupation numbers 
     1.0000   1.0000   1.0000   1.0000   1.0000   1.0000   1.0000   1.0000
    -0.0000  -0.0000  -0.0000  -0.0000

          k =-0.2222-0.1283 0.0000 (  1503 PWs)   bands (ev):

   -13.5441 -13.5029  -1.9220  -1.9122  -1.6774  -1.1501   0.0112   0.0154
     9.4818  12.5443  12.7257  12.8953

     occupation numbers 
     1.0000   1.0000   1.0000   1.0000   1.0000   1.0000   1.0000   1.0000
    -0.0000  -0.0000  -0.0000  -0.0000

          k =-0.2222-0.1283-0.0988 (  1501 PWs)   bands (ev):

   -13.5339 -13.5133  -1.9196  -1.9146  -1.5540  -1.2911   0.0123   0.0144
    10.0851  11.5891  12.7312  12.8129

     occupation numbers 
     1.0000   1.0000   1.0000   1.0000   1.0000   1.0000   1.0000   1.0000
    -0.0000  -0.0000  -0.0000  -0.0000

          k =-0.3333-0.1925 0.0000 (  1504 PWs)   bands (ev):

   -12.1244 -12.0879  -4.8422  -4.8257  -1.0043  -0.9994  -0.0338   0.4340
     9.5917   9.8076  11.3481  12.4531

     occupation numbers 
     1.0000   1.0000   1.0000   1.0000   1.0000   1.0000   1.0000   1.0000
    -0.0000  -0.0000  -0.0000  -0.0000

          k =-0.3333-0.1925-0.0988 (  1508 PWs)   bands (ev):

   -12.1153 -12.0972  -4.8381  -4.8298  -1.0031  -1.0006   0.0766   0.3100
     9.6327   9.7418  11.9204  12.4482

     occupation numbers 
     1.0000   1.0000   1.0000   1.0000   1.0000   1.0000   1.0000   1.0000
    -0.0000  -0.0000  -0.0000  -0.0000

          k =-0.4444-0.2566 0.0000 (  1510 PWs)   bands (ev):

   -10.2280 -10.1988  -7.5739  -7.5518  -1.5655  -1.5603   1.8729   2.1782
     6.8910   7.1599  12.1582  12.2211

     occupation numbers 
     1.0000   1.0000   1.0000   1.0000   1.0000   1.0000   1.0000   1.0000
    -0.0000  -0.0000  -0.0000  -0.0000

          k =-0.4444-0.2566-0.0988 (  1515 PWs)   bands (ev):

   -10.2208 -10.2062  -7.5684  -7.5574  -1.5642  -1.5616   1.9479   2.1006
     6.9465   7.0810  12.1742  12.2057

     occupation numbers 
     1.0000   1.0000   1.0000   1.0000   1.0000   1.0000   1.0000   1.0000
    -0.0000  -0.0000  -0.0000  -0.0000

          k = 0.2222-0.0000 0.0000 (  1503 PWs)   bands (ev):

   -13.8317 -13.7895  -2.0187  -1.4816  -0.9309  -0.9269   0.0226   0.0254
     9.1060  12.5082  13.5075  13.7362

     occupation numbers 
     1.0000   1.0000   1.0000   1.0000   1.0000   1.0000   1.0000   1.0000
    -0.0000  -0.0000  -0.0000  -0.0000

          k = 0.2222-0.0000-0.0988 (  1508 PWs)   bands (ev):

   -13.8212 -13.8002  -1.8932  -1.6254  -0.9299  -0.9279   0.0233   0.0247
     9.7202  11.2756  13.5221  13.5572

     occupation numbers 
     1.0000   1.0000   1.0000   1.0000   1.0000   1.0000   1.0000   1.0000
    -0.0000  -0.0000  -0.0000  -0.0000

          k =-0.2222-0.2566 0.0000 (  1514 PWs)   bands (ev):

   -12.6889 -12.6505  -3.3749  -3.3636  -1.3538  -1.3476  -0.6708  -0.1753
    10.6144  10.8784  11.0050  13.8451

     occupation numbers 
     1.0000   1.0000   1.0000   1.0000   1.0000   1.0000   1.0000   1.0000
    -0.0000  -0.0000  -0.0000  -0.0000

          k = 0.3333-0.0642 0.0000 (  1514 PWs)   bands (ev):

   -12.6888 -12.6505  -3.3741  -3.3629  -1.3547  -1.3485  -0.6710  -0.1755
    10.6143  10.8791  11.0057  13.8386

     occupation numbers 
     1.0000   1.0000   1.0000   1.0000   1.0000   1.0000   1.0000   1.0000
    -0.0000  -0.0000  -0.0000  -0.0000

          k =-0.2222-0.2566-0.0988 (  1511 PWs)   bands (ev):

   -12.6794 -12.6602  -3.3721  -3.3665  -1.3523  -1.3492  -0.5544  -0.3072
    10.8783  10.9630  11.2343  12.6743

     occupation numbers 
     1.0000   1.0000   1.0000   1.0000   1.0000   1.0000   1.0000   1.0000
    -0.0000  -0.0000  -0.0000  -0.0000

          k = 0.3333-0.0642-0.0988 (  1511 PWs)   bands (ev):

   -12.6793 -12.6602  -3.3713  -3.3657  -1.3531  -1.3500  -0.5545  -0.3074
    10.8790  10.9637  11.2342  12.6740

     occupation numbers 
     1.0000   1.0000   1.0000   1.0000   1.0000   1.0000   1.0000   1.0000
    -0.0000  -0.0000  -0.0000  -0.0000

          k =-0.3333-0.3208 0.0000 (  1522 PWs)   bands (ev):

   -11.0195 -10.9868  -6.1237  -6.1049  -2.2318  -2.2239   1.1875   1.5934
     8.0021   8.2265  12.8309  13.4973

     occupation numbers 
     1.0000   1.0000   1.0000   1.0000   1.0000   1.0000   1.0000   1.0000
    -0.0000  -0.0000  -0.0000  -0.0000

          k = 0.4444-0.1283 0.0000 (  1522 PWs)   bands (ev):

   -11.0195 -10.9868  -6.1236  -6.1048  -2.2321  -2.2241   1.1873   1.5932
     8.0026   8.2270  12.8308  13.4969

     occupation numbers 
     1.0000   1.0000   1.0000   1.0000   1.0000   1.0000   1.0000   1.0000
    -0.0000  -0.0000  -0.0000  -0.0000

          k =-0.3333-0.3208-0.0988 (  1516 PWs)   bands (ev):

   -11.0114 -10.9950  -6.1190  -6.1096  -2.2299  -2.2259   1.2843   1.4870
     8.0522   8.1647  13.2979  13.5074

     occupation numbers 
     1.0000   1.0000   1.0000   1.0000   1.0000   1.0000   1.0000   1.0000
    -0.0000  -0.0000  -0.0000  -0.0000

          k = 0.4444-0.1283-0.0988 (  1516 PWs)   bands (ev):

   -11.0113 -10.9950  -6.1189  -6.1094  -2.2301  -2.2261   1.2842   1.4868
     8.0527   8.1652  13.2975  13.5069

     occupation numbers 
     1.0000   1.0000   1.0000   1.0000   1.0000   1.0000   1.0000   1.0000
    -0.0000  -0.0000  -0.0000  -0.0000

          k =-0.4444-0.3849 0.0000 (  1521 PWs)   bands (ev):

    -9.2856  -9.2710  -8.2437  -8.2323  -2.5308  -2.5224   2.6226   2.7939
     6.3171   6.5084  13.3372  13.4260

     occupation numbers 
     1.0000   1.0000   1.0000   1.0000   1.0000   1.0000   1.0000   1.0000
    -0.0000  -0.0000  -0.0000  -0.0000

          k =-0.4444-0.3849-0.0988 (  1522 PWs)   bands (ev):

    -9.2819  -9.2745  -8.2410  -8.2353  -2.5287  -2.5245   2.6678   2.7537
     6.3522   6.4480  13.3589  13.4032

     occupation numbers 
     1.0000   1.0000   1.0000   1.0000   1.0000   1.0000   1.0000   1.0000
    -0.0000  -0.0000  -0.0000  -0.0000

          k = 0.4444-0.0000 0.0000 (  1507 PWs)   bands (ev):

   -11.2935 -11.2599  -4.8858  -4.8777  -3.3536  -3.3472   0.9305   1.3646
     8.6668   8.7928  12.4796  14.9614

     occupation numbers 
     1.0000   1.0000   1.0000   1.0000   1.0000   1.0000   1.0000   1.0000
    -0.0000  -0.0000  -0.0000  -0.0000

          k = 0.4444-0.0000-0.0988 (  1518 PWs)   bands (ev):

   -11.2852 -11.2684  -4.8838  -4.8797  -3.3520  -3.3489   1.0333   1.2501
     8.6982   8.7611  12.9791  14.1666

     occupation numbers 
     1.0000   1.0000   1.0000   1.0000   1.0000   1.0000   1.0000   1.0000
    -0.0000  -0.0000  -0.0000  -0.0000

          k =-0.3333-0.4491 0.0000 (  1529 PWs)   bands (ev):

    -9.4521  -9.4255  -6.9912  -6.9737  -4.3511  -4.3391   2.8583   3.1568
     6.4337   6.5826  14.9795  16.0886

     occupation numbers 
     1.0000   1.0000   1.0000   1.0000   1.0000   1.0000   1.0000   1.0000
    -0.0000  -0.0000  -0.0000  -0.0000

          k = 0.5556-0.0642 0.0000 (  1529 PWs)   bands (ev):

    -9.4522  -9.4255  -6.9909  -6.9733  -4.3515  -4.3395   2.8578   3.1563
     6.4345   6.5834  14.9795  16.0884

     occupation numbers 
     1.0000   1.0000   1.0000   1.0000   1.0000   1.0000   1.0000   1.0000
    -0.0000  -0.0000  -0.0000  -0.0000

          k =-0.3333-0.4491-0.0988 (  1533 PWs)   bands (ev):

    -9.4455  -9.4322  -6.9869  -6.9781  -4.3481  -4.3421   2.9314   3.0806
     6.4678   6.5425  15.1283  15.4605

     occupation numbers 
     1.0000   1.0000   1.0000   1.0000   1.0000   1.0000   1.0000   1.0000
    -0.0000  -0.0000  -0.0000  -0.0000

          k = 0.5556-0.0642-0.0988 (  1533 PWs)   bands (ev):

    -9.4455  -9.4322  -6.9865  -6.9777  -4.3485  -4.3425   2.9309   3.0802
     6.4686   6.5433  15.1279  15.4598

     occupation numbers 
     1.0000   1.0000   1.0000   1.0000   1.0000   1.0000   1.0000   1.0000
    -0.0000  -0.0000  -0.0000  -0.0000

     the Fermi energy is     4.8003 ev

!    total energy              =     -49.71283514 Ry
     estimated scf accuracy    <          3.1E-10 Ry
     smearing contrib. (-TS)   =      -0.00074981 Ry
     internal energy E=F+TS    =     -49.71208533 Ry

     The total energy is F=E-TS. E is the sum of the following terms:
     one-electron contribution =     -29.91044560 Ry
     hartree contribution      =      21.73952592 Ry
     xc contribution           =     -18.53786312 Ry
     ewald contribution        =     -23.00330253 Ry

     convergence has been achieved in   7 iterations

     Forces acting on atoms (cartesian axes, Ry/au):

     atom    1 type  1   force =    -0.00000000   -0.00025844    0.00000000
     atom    2 type  1   force =     0.00000000    0.00025844    0.00000000
     atom    3 type  1   force =     0.00000000    0.00025911    0.00000000
     atom    4 type  1   force =     0.00000000   -0.00025911    0.00000000
     The non-local contrib.  to forces
     atom    1 type  1   force =    -0.00000000   -0.00025341    0.00000000
     atom    2 type  1   force =     0.00000000    0.00025341    0.00000000
     atom    3 type  1   force =     0.00000000    0.00025338    0.00000000
     atom    4 type  1   force =     0.00000000   -0.00025338    0.00000000
     The ionic contribution  to forces
     atom    1 type  1   force =    -0.00000000   -0.00098176   -0.00000000
     atom    2 type  1   force =    -0.00000000    0.00098176    0.00000000
     atom    3 type  1   force =    -0.00000000    0.00098202   -0.00000000
     atom    4 type  1   force =     0.00000000   -0.00098202    0.00000000
     The local contribution  to forces
     atom    1 type  1   force =     0.00000000    0.00096822    0.00000000
     atom    2 type  1   force =    -0.00000000   -0.00096822    0.00000000
     atom    3 type  1   force =     0.00000000   -0.00096887    0.00000000
     atom    4 type  1   force =    -0.00000000    0.00096887    0.00000000
     The core correction contribution to forces
     atom    1 type  1   force =     0.00000000    0.00000853   -0.00000000
     atom    2 type  1   force =     0.00000000   -0.00000853   -0.00000000
     atom    3 type  1   force =     0.00000000   -0.00000778   -0.00000000
     atom    4 type  1   force =     0.00000000    0.00000778   -0.00000000
     The Hubbard contrib.    to forces
     atom    1 type  1   force =     0.00000000    0.00000000    0.00000000
     atom    2 type  1   force =     0.00000000    0.00000000    0.00000000
     atom    3 type  1   force =     0.00000000    0.00000000    0.00000000
     atom    4 type  1   force =     0.00000000    0.00000000    0.00000000
     The SCF correction term to forces
     atom    1 type  1   force =     0.00000000   -0.00000002   -0.00000000
     atom    2 type  1   force =     0.00000000    0.00000002   -0.00000000
     atom    3 type  1   force =    -0.00000000    0.00000036   -0.00000000
     atom    4 type  1   force =    -0.00000000   -0.00000036   -0.00000000

     Total force =     0.000518     Total SCF correction =     0.000001


     Computing stress (Cartesian axis) and pressure

          total   stress  (Ry/bohr**3)                   (kbar)     P=      -11.57
  -0.00011733   0.00000000   0.00000000          -17.26        0.00        0.00
   0.00000000  -0.00011666   0.00000000            0.00      -17.16        0.00
   0.00000000   0.00000000  -0.00000205            0.00        0.00       -0.30

     kinetic stress (kbar)   9267.88     -0.00      0.00
                               -0.00   9267.09      0.00
                                0.00      0.00  10528.17

     local   stress (kbar) -26774.04     -0.00      0.00
                               -0.00 -26778.49     -0.00
                                0.00     -0.00  27091.20

     nonloc. stress (kbar)   1801.59      0.00      0.00
                                0.00   1801.74      0.00
                                0.00     -0.00   1655.18

     hartree stress (kbar)   9939.35     -0.00     -0.00
                               -0.00   9939.99      0.00
                               -0.00      0.00  -9111.91

     exc-cor stress (kbar)   -164.91     -0.00      0.00
                               -0.00   -164.88     -0.00
                                0.00     -0.00   -269.54

     corecor stress (kbar)  -2235.97      0.00     -0.00
                                0.00  -2236.00     -0.00
                               -0.00     -0.00  -2197.80

     ewald   stress (kbar)   8148.85     -0.00     -0.00
                               -0.00   8153.39      0.00
                               -0.00      0.00 -27695.59

     hubbard stress (kbar)      0.00      0.00      0.00
                                0.00      0.00      0.00
                                0.00      0.00      0.00

     DFT-D   stress (kbar)      0.00      0.00      0.00
                                0.00      0.00      0.00
                                0.00      0.00      0.00

     XDM     stress (kbar)      0.00      0.00      0.00
                                0.00      0.00      0.00
                                0.00      0.00      0.00

     dft-nl  stress (kbar)      0.00      0.00      0.00
                                0.00      0.00      0.00
                                0.00      0.00      0.00

     TS-vdW  stress (kbar)      0.00      0.00      0.00
                                0.00      0.00      0.00
                                0.00      0.00      0.00



     Writing output data file ./tmp/C.save/

     init_run     :      2.13s CPU      2.20s WALL (       1 calls)
     electrons    :     21.40s CPU     21.97s WALL (       1 calls)
     forces       :      1.08s CPU      1.11s WALL (       1 calls)
     stress       :      2.06s CPU      2.09s WALL (       1 calls)

     Called by init_run:
     wfcinit      :      1.22s CPU      1.25s WALL (       1 calls)
     wfcinit:atom :      0.04s CPU      0.04s WALL (      50 calls)
     wfcinit:wfcr :      0.96s CPU      0.98s WALL (      50 calls)
     potinit      :      0.24s CPU      0.25s WALL (       1 calls)
     hinit0       :      0.56s CPU      0.57s WALL (       1 calls)

     Called by electrons:
     c_bands      :     16.55s CPU     16.98s WALL (       7 calls)
     sum_band     :      3.36s CPU      3.47s WALL (       7 calls)
     v_of_rho     :      1.18s CPU      1.19s WALL (       8 calls)
     v_h          :      0.06s CPU      0.06s WALL (       8 calls)
     v_xc         :      1.41s CPU      1.43s WALL (      10 calls)
     newd         :      0.35s CPU      0.38s WALL (       8 calls)
     mix_rho      :      0.10s CPU      0.10s WALL (       7 calls)

     Called by c_bands:
     init_us_2    :      0.76s CPU      0.79s WALL (     850 calls)
     cegterg      :     15.55s CPU     15.94s WALL (     350 calls)

     Called by sum_band:
     sum_band:wei :      0.01s CPU      0.01s WALL (       7 calls)
     sum_band:loo :      2.74s CPU      2.83s WALL (       7 calls)
     sum_band:buf :      0.03s CPU      0.03s WALL (     350 calls)
     sum_band:ini :      0.30s CPU      0.31s WALL (     350 calls)
     sum_band:cal :      0.24s CPU      0.25s WALL (     350 calls)
     sum_band:bec :      0.01s CPU      0.01s WALL (     350 calls)
     addusdens    :      0.31s CPU      0.33s WALL (       7 calls)
     addusd:skk   :      0.01s CPU      0.01s WALL (       7 calls)
     addusd:dgemm :      0.06s CPU      0.08s WALL (       7 calls)
     addusd:qvan2 :      0.14s CPU      0.14s WALL (       7 calls)

     Called by *egterg:
     cdiaghg      :      0.61s CPU      0.63s WALL (    1520 calls)
     cegterg:over :      0.75s CPU      0.76s WALL (    1170 calls)
     cegterg:upda :      0.51s CPU      0.52s WALL (    1170 calls)
     cegterg:last :      0.81s CPU      0.83s WALL (     764 calls)
     h_psi        :     12.45s CPU     12.76s WALL (    1570 calls)
     s_psi        :      0.69s CPU      0.71s WALL (    1570 calls)
     g_psi        :      0.17s CPU      0.17s WALL (    1170 calls)

     Called by h_psi:
     h_psi:calbec :      0.83s CPU      0.86s WALL (    1570 calls)
     vloc_psi     :     10.67s CPU     10.93s WALL (    1570 calls)
     add_vuspsi   :      0.78s CPU      0.80s WALL (    1570 calls)

     General routines
     calbec       :      1.30s CPU      1.35s WALL (    2170 calls)
     fft          :      0.78s CPU      0.79s WALL (     127 calls)
     ffts         :      0.02s CPU      0.02s WALL (      15 calls)
     fftw         :     10.12s CPU     10.40s WALL (   28026 calls)
     interpolate  :      0.06s CPU      0.06s WALL (       8 calls)

     Parallel routines

     PWSCF        :     26.83s CPU     27.60s WALL


   This run was terminated on:  17:17:17  23May2022            

=------------------------------------------------------------------------------=
   JOB DONE.
=------------------------------------------------------------------------------=
