
     Program PWSCF v.6.7MaX starts on 23May2022 at 17:19:49 

     This program is part of the open-source Quantum ESPRESSO suite
     for quantum simulation of materials; please cite
         "P. Giannozzi et al., J. Phys.:Condens. Matter 21 395502 (2009);
         "P. Giannozzi et al., J. Phys.:Condens. Matter 29 465901 (2017);
          URL http://www.quantum-espresso.org", 
     in publications or presentations arising from this work. More details at
     http://www.quantum-espresso.org/quote

     Parallel version (MPI), running on     1 processors

     MPI processes distributed on     1 nodes
     Waiting for input...
     Reading input from standard input

     Current dimensions of program PWSCF are:
     Max number of different atomic species (ntypx) = 10
     Max number of k-points (npk) =  40000
     Max angular momentum in pseudopotentials (lmaxx) =  3

     Subspace diagonalization in iterative solution of the eigenvalue problem:
     a serial algorithm will be used


     G-vector sticks info
     --------------------
     sticks:   dense  smooth     PW     G-vecs:    dense   smooth      PW
     Sum         547     265     85                34301    12031    2173



     bravais-lattice index     =            4
     lattice parameter (alat)  =       4.6676  a.u.
     unit-cell volume          =     297.0066 (a.u.)^3
     number of atoms/cell      =            4
     number of atomic types    =            1
     number of electrons       =        16.00
     number of Kohn-Sham states=           12
     kinetic-energy cutoff     =      45.0000  Ry
     charge density cutoff     =     360.0000  Ry
     scf convergence threshold =      1.0E-09
     mixing beta               =       0.7000
     number of iterations used =            8  plain     mixing
     Exchange-correlation= PBE
                           (   1   4   3   4   0   0   0)

     celldm(1)=   4.667624  celldm(2)=   1.000000  celldm(3)=   3.372470
     celldm(4)=   0.000000  celldm(5)=   0.000000  celldm(6)=   0.000000

     crystal axes: (cart. coord. in units of alat)
               a(1) = (   1.000000   0.000000   0.000000 )  
               a(2) = (  -0.500000   0.866025   0.000000 )  
               a(3) = (   0.000000   0.000000   3.372470 )  

     reciprocal axes: (cart. coord. in units 2 pi/alat)
               b(1) = (  1.000000  0.577350 -0.000000 )  
               b(2) = (  0.000000  1.154701  0.000000 )  
               b(3) = (  0.000000 -0.000000  0.296519 )  


     PseudoPot. # 1 for C  read from file:
     /home/max/Desktop/graphite_DFT/Pseudo/C.pbe-n-rrkjus_psl.1.0.0.UPF
     MD5 check sum: 1fdd950c42eb37d8afe3dd2f8d12311e
     Pseudo is Ultrasoft + core correction, Zval =  4.0
     Generated using &quot;atomic&quot; code by A. Dal Corso  v.6.3MaX
     Using radial grid of 1073 points,  4 beta functions with: 
                l(1) =   0
                l(2) =   0
                l(3) =   1
                l(4) =   1
     Q(r) pseudized with 0 coefficients 


     atomic species   valence    mass     pseudopotential
        C              4.00    12.01100     C ( 1.00)

      8 Sym. Ops., with inversion, found ( 4 have fractional translation)


                                    s                        frac. trans.

      isym =  1     identity                                     

 cryst.   s( 1) = (     1          0          0      )
                  (     0          1          0      )
                  (     0          0          1      )

 cart.    s( 1) = (  1.0000000  0.0000000  0.0000000 )
                  (  0.0000000  1.0000000  0.0000000 )
                  (  0.0000000  0.0000000  1.0000000 )


      isym =  2     180 deg rotation - cart. axis [0,0,1]        

 cryst.   s( 2) = (    -1          0          0      )    f =(  0.0000000 )
                  (     0         -1          0      )       (  0.0000000 )
                  (     0          0          1      )       ( -0.5000000 )

 cart.    s( 2) = ( -1.0000000  0.0000000  0.0000000 )    f =(  0.0000000 )
                  (  0.0000000 -1.0000000  0.0000000 )       (  0.0000000 )
                  (  0.0000000  0.0000000  1.0000000 )       ( -1.6862348 )


      isym =  3     180 deg rotation - cart. axis [0,1,0]        

 cryst.   s( 3) = (    -1          0          0      )    f =(  0.0000000 )
                  (     1          1          0      )       (  0.0000000 )
                  (     0          0         -1      )       (  0.5000000 )

 cart.    s( 3) = ( -1.0000000  0.0000000  0.0000000 )    f =(  0.0000000 )
                  (  0.0000000  1.0000000  0.0000000 )       (  0.0000000 )
                  (  0.0000000  0.0000000 -1.0000000 )       (  1.6862348 )


      isym =  4     180 deg rotation - cart. axis [1,0,0]        

 cryst.   s( 4) = (     1          0          0      )
                  (    -1         -1          0      )
                  (     0          0         -1      )

 cart.    s( 4) = (  1.0000000  0.0000000  0.0000000 )
                  (  0.0000000 -1.0000000  0.0000000 )
                  (  0.0000000  0.0000000 -1.0000000 )


      isym =  5     inversion                                    

 cryst.   s( 5) = (    -1          0          0      )
                  (     0         -1          0      )
                  (     0          0         -1      )

 cart.    s( 5) = ( -1.0000000  0.0000000  0.0000000 )
                  (  0.0000000 -1.0000000  0.0000000 )
                  (  0.0000000  0.0000000 -1.0000000 )


      isym =  6     inv. 180 deg rotation - cart. axis [0,0,1]   

 cryst.   s( 6) = (     1          0          0      )    f =(  0.0000000 )
                  (     0          1          0      )       (  0.0000000 )
                  (     0          0         -1      )       (  0.5000000 )

 cart.    s( 6) = (  1.0000000  0.0000000  0.0000000 )    f =(  0.0000000 )
                  (  0.0000000  1.0000000  0.0000000 )       (  0.0000000 )
                  (  0.0000000  0.0000000 -1.0000000 )       (  1.6862348 )


      isym =  7     inv. 180 deg rotation - cart. axis [0,1,0]   

 cryst.   s( 7) = (     1          0          0      )    f =(  0.0000000 )
                  (    -1         -1          0      )       (  0.0000000 )
                  (     0          0          1      )       ( -0.5000000 )

 cart.    s( 7) = (  1.0000000  0.0000000  0.0000000 )    f =(  0.0000000 )
                  (  0.0000000 -1.0000000  0.0000000 )       (  0.0000000 )
                  (  0.0000000  0.0000000  1.0000000 )       ( -1.6862348 )


      isym =  8     inv. 180 deg rotation - cart. axis [1,0,0]   

 cryst.   s( 8) = (    -1          0          0      )
                  (     1          1          0      )
                  (     0          0          1      )

 cart.    s( 8) = ( -1.0000000  0.0000000  0.0000000 )
                  (  0.0000000  1.0000000  0.0000000 )
                  (  0.0000000  0.0000000  1.0000000 )


     point group D_2h (mmm) 
     there are  8 classes
     the character table:

       E     C2    C2'   C2''  i     s_v   s_v'  s_v''
A_g    1.00  1.00  1.00  1.00  1.00  1.00  1.00  1.00
B_1g   1.00  1.00 -1.00 -1.00  1.00  1.00 -1.00 -1.00
B_2g   1.00 -1.00  1.00 -1.00  1.00 -1.00  1.00 -1.00
B_3g   1.00 -1.00 -1.00  1.00  1.00 -1.00 -1.00  1.00
A_u    1.00  1.00  1.00  1.00 -1.00 -1.00 -1.00 -1.00
B_1u   1.00  1.00 -1.00 -1.00 -1.00 -1.00  1.00  1.00
B_2u   1.00 -1.00  1.00 -1.00 -1.00  1.00 -1.00  1.00
B_3u   1.00 -1.00 -1.00  1.00 -1.00  1.00  1.00 -1.00

     the symmetry operations in each class and the name of the first element:

     E        1
          identity                                               
     C2       2
          180 deg rotation - cart. axis [0,0,1]                  
     C2'      4
          180 deg rotation - cart. axis [1,0,0]                  
     C2''     3
          180 deg rotation - cart. axis [0,1,0]                  
     i        5
          inversion                                              
     s_v      6
          inv. 180 deg rotation - cart. axis [0,0,1]             
     s_v'     8
          inv. 180 deg rotation - cart. axis [1,0,0]             
     s_v''    7
          inv. 180 deg rotation - cart. axis [0,1,0]             

   Cartesian axes

     site n.     atom                  positions (alat units)
         1           C   tau(   1) = (   0.0000000   0.0000000   0.8431174  )
         2           C   tau(   2) = (   0.0000000   0.0000000   2.5293522  )
         3           C   tau(   3) = (   0.0000000   0.5772925   0.8431174  )
         4           C   tau(   4) = (   0.5000000   0.2887329   2.5293522  )

   Crystallographic axes

     site n.     atom                  positions (cryst. coord.)
         1           C   tau(   1) = (  0.0000000  0.0000000  0.2500000  )
         2           C   tau(   2) = (  0.0000000  0.0000000  0.7500000  )
         3           C   tau(   3) = (  0.3333000  0.6666000  0.2500000  )
         4           C   tau(   4) = (  0.6667000  0.3334000  0.7500000  )

     number of k points=   147  Methfessel-Paxton smearing, width (Ry)=  0.0300
                       cart. coord. in units 2pi/alat
        k(    1) = (   0.0000000   0.0000000   0.0000000), wk =   0.0029586
        k(    2) = (   0.0000000   0.0000000   0.0741297), wk =   0.0059172
        k(    3) = (   0.0000000   0.0000000  -0.1482593), wk =   0.0029586
        k(    4) = (   0.0000000   0.0888231   0.0000000), wk =   0.0059172
        k(    5) = (   0.0000000   0.0888231   0.0741297), wk =   0.0118343
        k(    6) = (   0.0000000   0.0888231  -0.1482593), wk =   0.0059172
        k(    7) = (   0.0000000   0.1776462   0.0000000), wk =   0.0059172
        k(    8) = (   0.0000000   0.1776462   0.0741297), wk =   0.0118343
        k(    9) = (   0.0000000   0.1776462  -0.1482593), wk =   0.0059172
        k(   10) = (   0.0000000   0.2664694   0.0000000), wk =   0.0059172
        k(   11) = (   0.0000000   0.2664694   0.0741297), wk =   0.0118343
        k(   12) = (   0.0000000   0.2664694  -0.1482593), wk =   0.0059172
        k(   13) = (   0.0000000   0.3552925   0.0000000), wk =   0.0059172
        k(   14) = (   0.0000000   0.3552925   0.0741297), wk =   0.0118343
        k(   15) = (   0.0000000   0.3552925  -0.1482593), wk =   0.0059172
        k(   16) = (   0.0000000   0.4441156   0.0000000), wk =   0.0059172
        k(   17) = (   0.0000000   0.4441156   0.0741297), wk =   0.0118343
        k(   18) = (   0.0000000   0.4441156  -0.1482593), wk =   0.0059172
        k(   19) = (   0.0000000   0.5329387   0.0000000), wk =   0.0059172
        k(   20) = (   0.0000000   0.5329387   0.0741297), wk =   0.0118343
        k(   21) = (   0.0000000   0.5329387  -0.1482593), wk =   0.0059172
        k(   22) = (   0.0769231   0.1332347   0.0000000), wk =   0.0118343
        k(   23) = (   0.0769231   0.1332347   0.0741297), wk =   0.0236686
        k(   24) = (   0.0769231   0.1332347  -0.1482593), wk =   0.0118343
        k(   25) = (   0.0769231   0.2220578   0.0000000), wk =   0.0118343
        k(   26) = (   0.0769231   0.2220578   0.0741297), wk =   0.0236686
        k(   27) = (   0.0769231   0.2220578  -0.1482593), wk =   0.0118343
        k(   28) = (   0.0769231   0.3108809   0.0000000), wk =   0.0118343
        k(   29) = (   0.0769231   0.3108809   0.0741297), wk =   0.0236686
        k(   30) = (   0.0769231   0.3108809  -0.1482593), wk =   0.0118343
        k(   31) = (   0.0769231   0.3997040   0.0000000), wk =   0.0118343
        k(   32) = (   0.0769231   0.3997040   0.0741297), wk =   0.0236686
        k(   33) = (   0.0769231   0.3997040  -0.1482593), wk =   0.0118343
        k(   34) = (   0.0769231   0.4885272   0.0000000), wk =   0.0118343
        k(   35) = (   0.0769231   0.4885272   0.0741297), wk =   0.0236686
        k(   36) = (   0.0769231   0.4885272  -0.1482593), wk =   0.0118343
        k(   37) = (   0.0769231   0.5773503   0.0000000), wk =   0.0059172
        k(   38) = (   0.0769231   0.5773503   0.0741297), wk =   0.0118343
        k(   39) = (   0.0769231   0.5773503  -0.1482593), wk =   0.0059172
        k(   40) = (   0.1538462   0.2664694   0.0000000), wk =   0.0118343
        k(   41) = (   0.1538462   0.2664694   0.0741297), wk =   0.0236686
        k(   42) = (   0.1538462   0.2664694  -0.1482593), wk =   0.0118343
        k(   43) = (   0.1538462   0.3552925   0.0000000), wk =   0.0118343
        k(   44) = (   0.1538462   0.3552925   0.0741297), wk =   0.0236686
        k(   45) = (   0.1538462   0.3552925  -0.1482593), wk =   0.0118343
        k(   46) = (   0.1538462   0.4441156   0.0000000), wk =   0.0118343
        k(   47) = (   0.1538462   0.4441156   0.0741297), wk =   0.0236686
        k(   48) = (   0.1538462   0.4441156  -0.1482593), wk =   0.0118343
        k(   49) = (   0.1538462   0.5329387   0.0000000), wk =   0.0118343
        k(   50) = (   0.1538462   0.5329387   0.0741297), wk =   0.0236686
        k(   51) = (   0.1538462   0.5329387  -0.1482593), wk =   0.0118343
        k(   52) = (   0.2307692   0.3997040   0.0000000), wk =   0.0118343
        k(   53) = (   0.2307692   0.3997040   0.0741297), wk =   0.0236686
        k(   54) = (   0.2307692   0.3997040  -0.1482593), wk =   0.0118343
        k(   55) = (   0.2307692   0.4885272   0.0000000), wk =   0.0118343
        k(   56) = (   0.2307692   0.4885272   0.0741297), wk =   0.0236686
        k(   57) = (   0.2307692   0.4885272  -0.1482593), wk =   0.0118343
        k(   58) = (   0.2307692   0.5773503   0.0000000), wk =   0.0059172
        k(   59) = (   0.2307692   0.5773503   0.0741297), wk =   0.0118343
        k(   60) = (   0.2307692   0.5773503  -0.1482593), wk =   0.0059172
        k(   61) = (   0.3076923   0.5329387   0.0000000), wk =   0.0118343
        k(   62) = (   0.3076923   0.5329387   0.0741297), wk =   0.0236686
        k(   63) = (   0.3076923   0.5329387  -0.1482593), wk =   0.0118343
        k(   64) = (  -0.0769231  -0.0444116   0.0000000), wk =   0.0118343
        k(   65) = (  -0.0769231  -0.0444116  -0.0741297), wk =   0.0236686
        k(   66) = (  -0.0769231  -0.0444116   0.1482593), wk =   0.0118343
        k(   67) = (  -0.1538462  -0.0888231   0.0000000), wk =   0.0118343
        k(   68) = (  -0.1538462  -0.0888231  -0.0741297), wk =   0.0236686
        k(   69) = (  -0.1538462  -0.0888231   0.1482593), wk =   0.0118343
        k(   70) = (  -0.2307692  -0.1332347   0.0000000), wk =   0.0118343
        k(   71) = (  -0.2307692  -0.1332347  -0.0741297), wk =   0.0236686
        k(   72) = (  -0.2307692  -0.1332347   0.1482593), wk =   0.0118343
        k(   73) = (  -0.3076923  -0.1776462   0.0000000), wk =   0.0118343
        k(   74) = (  -0.3076923  -0.1776462  -0.0741297), wk =   0.0236686
        k(   75) = (  -0.3076923  -0.1776462   0.1482593), wk =   0.0118343
        k(   76) = (  -0.3846154  -0.2220578   0.0000000), wk =   0.0118343
        k(   77) = (  -0.3846154  -0.2220578  -0.0741297), wk =   0.0236686
        k(   78) = (  -0.3846154  -0.2220578   0.1482593), wk =   0.0118343
        k(   79) = (  -0.4615385  -0.2664694   0.0000000), wk =   0.0118343
        k(   80) = (  -0.4615385  -0.2664694  -0.0741297), wk =   0.0236686
        k(   81) = (  -0.4615385  -0.2664694   0.1482593), wk =   0.0118343
        k(   82) = (   0.1538462   0.0000000   0.0000000), wk =   0.0059172
        k(   83) = (   0.1538462   0.0000000  -0.0741297), wk =   0.0118343
        k(   84) = (   0.1538462   0.0000000   0.1482593), wk =   0.0059172
        k(   85) = (  -0.1538462  -0.1776462   0.0000000), wk =   0.0118343
        k(   86) = (   0.2307692  -0.0444116   0.0000000), wk =   0.0118343
        k(   87) = (  -0.1538462  -0.1776462  -0.0741297), wk =   0.0236686
        k(   88) = (   0.2307692  -0.0444116  -0.0741297), wk =   0.0236686
        k(   89) = (  -0.1538462  -0.1776462   0.1482593), wk =   0.0118343
        k(   90) = (   0.2307692  -0.0444116   0.1482593), wk =   0.0118343
        k(   91) = (  -0.2307692  -0.2220578   0.0000000), wk =   0.0118343
        k(   92) = (   0.3076923  -0.0888231   0.0000000), wk =   0.0118343
        k(   93) = (  -0.2307692  -0.2220578  -0.0741297), wk =   0.0236686
        k(   94) = (   0.3076923  -0.0888231  -0.0741297), wk =   0.0236686
        k(   95) = (  -0.2307692  -0.2220578   0.1482593), wk =   0.0118343
        k(   96) = (   0.3076923  -0.0888231   0.1482593), wk =   0.0118343
        k(   97) = (  -0.3076923  -0.2664694   0.0000000), wk =   0.0118343
        k(   98) = (   0.3846154  -0.1332347   0.0000000), wk =   0.0118343
        k(   99) = (  -0.3076923  -0.2664694  -0.0741297), wk =   0.0236686
        k(  100) = (   0.3846154  -0.1332347  -0.0741297), wk =   0.0236686
        k(  101) = (  -0.3076923  -0.2664694   0.1482593), wk =   0.0118343
        k(  102) = (   0.3846154  -0.1332347   0.1482593), wk =   0.0118343
        k(  103) = (  -0.3846154  -0.3108809   0.0000000), wk =   0.0118343
        k(  104) = (   0.4615385  -0.1776462   0.0000000), wk =   0.0118343
        k(  105) = (  -0.3846154  -0.3108809  -0.0741297), wk =   0.0236686
        k(  106) = (   0.4615385  -0.1776462  -0.0741297), wk =   0.0236686
        k(  107) = (  -0.3846154  -0.3108809   0.1482593), wk =   0.0118343
        k(  108) = (   0.4615385  -0.1776462   0.1482593), wk =   0.0118343
        k(  109) = (  -0.4615385  -0.3552925   0.0000000), wk =   0.0118343
        k(  110) = (  -0.4615385  -0.3552925  -0.0741297), wk =   0.0236686
        k(  111) = (  -0.4615385  -0.3552925   0.1482593), wk =   0.0118343
        k(  112) = (   0.3076923   0.0000000   0.0000000), wk =   0.0059172
        k(  113) = (   0.3076923   0.0000000  -0.0741297), wk =   0.0118343
        k(  114) = (   0.3076923   0.0000000   0.1482593), wk =   0.0059172
        k(  115) = (  -0.2307692  -0.3108809   0.0000000), wk =   0.0118343
        k(  116) = (   0.3846154  -0.0444116   0.0000000), wk =   0.0118343
        k(  117) = (  -0.2307692  -0.3108809  -0.0741297), wk =   0.0236686
        k(  118) = (   0.3846154  -0.0444116  -0.0741297), wk =   0.0236686
        k(  119) = (  -0.2307692  -0.3108809   0.1482593), wk =   0.0118343
        k(  120) = (   0.3846154  -0.0444116   0.1482593), wk =   0.0118343
        k(  121) = (  -0.3076923  -0.3552925   0.0000000), wk =   0.0118343
        k(  122) = (   0.4615385  -0.0888231   0.0000000), wk =   0.0118343
        k(  123) = (  -0.3076923  -0.3552925  -0.0741297), wk =   0.0236686
        k(  124) = (   0.4615385  -0.0888231  -0.0741297), wk =   0.0236686
        k(  125) = (  -0.3076923  -0.3552925   0.1482593), wk =   0.0118343
        k(  126) = (   0.4615385  -0.0888231   0.1482593), wk =   0.0118343
        k(  127) = (  -0.3846154  -0.3997040   0.0000000), wk =   0.0118343
        k(  128) = (   0.5384615  -0.1332347   0.0000000), wk =   0.0118343
        k(  129) = (  -0.3846154  -0.3997040  -0.0741297), wk =   0.0236686
        k(  130) = (   0.5384615  -0.1332347  -0.0741297), wk =   0.0236686
        k(  131) = (  -0.3846154  -0.3997040   0.1482593), wk =   0.0118343
        k(  132) = (   0.5384615  -0.1332347   0.1482593), wk =   0.0118343
        k(  133) = (   0.4615385   0.0000000   0.0000000), wk =   0.0059172
        k(  134) = (   0.4615385   0.0000000  -0.0741297), wk =   0.0118343
        k(  135) = (   0.4615385   0.0000000   0.1482593), wk =   0.0059172
        k(  136) = (  -0.3076923  -0.4441156   0.0000000), wk =   0.0118343
        k(  137) = (   0.5384615  -0.0444116   0.0000000), wk =   0.0118343
        k(  138) = (  -0.3076923  -0.4441156  -0.0741297), wk =   0.0236686
        k(  139) = (   0.5384615  -0.0444116  -0.0741297), wk =   0.0236686
        k(  140) = (  -0.3076923  -0.4441156   0.1482593), wk =   0.0118343
        k(  141) = (   0.5384615  -0.0444116   0.1482593), wk =   0.0118343
        k(  142) = (  -0.3846154  -0.4885272   0.0000000), wk =   0.0118343
        k(  143) = (  -0.3846154  -0.4885272  -0.0741297), wk =   0.0236686
        k(  144) = (  -0.3846154  -0.4885272   0.1482593), wk =   0.0118343
        k(  145) = (   0.6153846   0.0000000   0.0000000), wk =   0.0059172
        k(  146) = (   0.6153846   0.0000000  -0.0741297), wk =   0.0118343
        k(  147) = (   0.6153846   0.0000000   0.1482593), wk =   0.0059172

                       cryst. coord.
        k(    1) = (   0.0000000   0.0000000   0.0000000), wk =   0.0029586
        k(    2) = (   0.0000000   0.0000000   0.2500000), wk =   0.0059172
        k(    3) = (   0.0000000   0.0000000  -0.5000000), wk =   0.0029586
        k(    4) = (   0.0000000   0.0769231   0.0000000), wk =   0.0059172
        k(    5) = (   0.0000000   0.0769231   0.2500000), wk =   0.0118343
        k(    6) = (   0.0000000   0.0769231  -0.5000000), wk =   0.0059172
        k(    7) = (   0.0000000   0.1538462   0.0000000), wk =   0.0059172
        k(    8) = (   0.0000000   0.1538462   0.2500000), wk =   0.0118343
        k(    9) = (   0.0000000   0.1538462  -0.5000000), wk =   0.0059172
        k(   10) = (   0.0000000   0.2307692   0.0000000), wk =   0.0059172
        k(   11) = (   0.0000000   0.2307692   0.2500000), wk =   0.0118343
        k(   12) = (   0.0000000   0.2307692  -0.5000000), wk =   0.0059172
        k(   13) = (   0.0000000   0.3076923   0.0000000), wk =   0.0059172
        k(   14) = (   0.0000000   0.3076923   0.2500000), wk =   0.0118343
        k(   15) = (   0.0000000   0.3076923  -0.5000000), wk =   0.0059172
        k(   16) = (   0.0000000   0.3846154   0.0000000), wk =   0.0059172
        k(   17) = (   0.0000000   0.3846154   0.2500000), wk =   0.0118343
        k(   18) = (   0.0000000   0.3846154  -0.5000000), wk =   0.0059172
        k(   19) = (   0.0000000   0.4615385   0.0000000), wk =   0.0059172
        k(   20) = (   0.0000000   0.4615385   0.2500000), wk =   0.0118343
        k(   21) = (   0.0000000   0.4615385  -0.5000000), wk =   0.0059172
        k(   22) = (   0.0769231   0.0769231   0.0000000), wk =   0.0118343
        k(   23) = (   0.0769231   0.0769231   0.2500000), wk =   0.0236686
        k(   24) = (   0.0769231   0.0769231  -0.5000000), wk =   0.0118343
        k(   25) = (   0.0769231   0.1538462   0.0000000), wk =   0.0118343
        k(   26) = (   0.0769231   0.1538462   0.2500000), wk =   0.0236686
        k(   27) = (   0.0769231   0.1538462  -0.5000000), wk =   0.0118343
        k(   28) = (   0.0769231   0.2307692   0.0000000), wk =   0.0118343
        k(   29) = (   0.0769231   0.2307692   0.2500000), wk =   0.0236686
        k(   30) = (   0.0769231   0.2307692  -0.5000000), wk =   0.0118343
        k(   31) = (   0.0769231   0.3076923   0.0000000), wk =   0.0118343
        k(   32) = (   0.0769231   0.3076923   0.2500000), wk =   0.0236686
        k(   33) = (   0.0769231   0.3076923  -0.5000000), wk =   0.0118343
        k(   34) = (   0.0769231   0.3846154   0.0000000), wk =   0.0118343
        k(   35) = (   0.0769231   0.3846154   0.2500000), wk =   0.0236686
        k(   36) = (   0.0769231   0.3846154  -0.5000000), wk =   0.0118343
        k(   37) = (   0.0769231   0.4615385   0.0000000), wk =   0.0059172
        k(   38) = (   0.0769231   0.4615385   0.2500000), wk =   0.0118343
        k(   39) = (   0.0769231   0.4615385  -0.5000000), wk =   0.0059172
        k(   40) = (   0.1538462   0.1538462   0.0000000), wk =   0.0118343
        k(   41) = (   0.1538462   0.1538462   0.2500000), wk =   0.0236686
        k(   42) = (   0.1538462   0.1538462  -0.5000000), wk =   0.0118343
        k(   43) = (   0.1538462   0.2307692   0.0000000), wk =   0.0118343
        k(   44) = (   0.1538462   0.2307692   0.2500000), wk =   0.0236686
        k(   45) = (   0.1538462   0.2307692  -0.5000000), wk =   0.0118343
        k(   46) = (   0.1538462   0.3076923   0.0000000), wk =   0.0118343
        k(   47) = (   0.1538462   0.3076923   0.2500000), wk =   0.0236686
        k(   48) = (   0.1538462   0.3076923  -0.5000000), wk =   0.0118343
        k(   49) = (   0.1538462   0.3846154   0.0000000), wk =   0.0118343
        k(   50) = (   0.1538462   0.3846154   0.2500000), wk =   0.0236686
        k(   51) = (   0.1538462   0.3846154  -0.5000000), wk =   0.0118343
        k(   52) = (   0.2307692   0.2307692   0.0000000), wk =   0.0118343
        k(   53) = (   0.2307692   0.2307692   0.2500000), wk =   0.0236686
        k(   54) = (   0.2307692   0.2307692  -0.5000000), wk =   0.0118343
        k(   55) = (   0.2307692   0.3076923   0.0000000), wk =   0.0118343
        k(   56) = (   0.2307692   0.3076923   0.2500000), wk =   0.0236686
        k(   57) = (   0.2307692   0.3076923  -0.5000000), wk =   0.0118343
        k(   58) = (   0.2307692   0.3846154   0.0000000), wk =   0.0059172
        k(   59) = (   0.2307692   0.3846154   0.2500000), wk =   0.0118343
        k(   60) = (   0.2307692   0.3846154  -0.5000000), wk =   0.0059172
        k(   61) = (   0.3076923   0.3076923   0.0000000), wk =   0.0118343
        k(   62) = (   0.3076923   0.3076923   0.2500000), wk =   0.0236686
        k(   63) = (   0.3076923   0.3076923  -0.5000000), wk =   0.0118343
        k(   64) = (  -0.0769231   0.0000000   0.0000000), wk =   0.0118343
        k(   65) = (  -0.0769231   0.0000000  -0.2500000), wk =   0.0236686
        k(   66) = (  -0.0769231   0.0000000   0.5000000), wk =   0.0118343
        k(   67) = (  -0.1538462   0.0000000   0.0000000), wk =   0.0118343
        k(   68) = (  -0.1538462   0.0000000  -0.2500000), wk =   0.0236686
        k(   69) = (  -0.1538462   0.0000000   0.5000000), wk =   0.0118343
        k(   70) = (  -0.2307692   0.0000000   0.0000000), wk =   0.0118343
        k(   71) = (  -0.2307692   0.0000000  -0.2500000), wk =   0.0236686
        k(   72) = (  -0.2307692   0.0000000   0.5000000), wk =   0.0118343
        k(   73) = (  -0.3076923   0.0000000   0.0000000), wk =   0.0118343
        k(   74) = (  -0.3076923   0.0000000  -0.2500000), wk =   0.0236686
        k(   75) = (  -0.3076923   0.0000000   0.5000000), wk =   0.0118343
        k(   76) = (  -0.3846154   0.0000000   0.0000000), wk =   0.0118343
        k(   77) = (  -0.3846154   0.0000000  -0.2500000), wk =   0.0236686
        k(   78) = (  -0.3846154   0.0000000   0.5000000), wk =   0.0118343
        k(   79) = (  -0.4615385   0.0000000   0.0000000), wk =   0.0118343
        k(   80) = (  -0.4615385   0.0000000  -0.2500000), wk =   0.0236686
        k(   81) = (  -0.4615385   0.0000000   0.5000000), wk =   0.0118343
        k(   82) = (   0.1538462  -0.0769231   0.0000000), wk =   0.0059172
        k(   83) = (   0.1538462  -0.0769231  -0.2500000), wk =   0.0118343
        k(   84) = (   0.1538462  -0.0769231   0.5000000), wk =   0.0059172
        k(   85) = (  -0.1538462  -0.0769231   0.0000000), wk =   0.0118343
        k(   86) = (   0.2307692  -0.1538462   0.0000000), wk =   0.0118343
        k(   87) = (  -0.1538462  -0.0769231  -0.2500000), wk =   0.0236686
        k(   88) = (   0.2307692  -0.1538462  -0.2500000), wk =   0.0236686
        k(   89) = (  -0.1538462  -0.0769231   0.5000000), wk =   0.0118343
        k(   90) = (   0.2307692  -0.1538462   0.5000000), wk =   0.0118343
        k(   91) = (  -0.2307692  -0.0769231   0.0000000), wk =   0.0118343
        k(   92) = (   0.3076923  -0.2307692   0.0000000), wk =   0.0118343
        k(   93) = (  -0.2307692  -0.0769231  -0.2500000), wk =   0.0236686
        k(   94) = (   0.3076923  -0.2307692  -0.2500000), wk =   0.0236686
        k(   95) = (  -0.2307692  -0.0769231   0.5000000), wk =   0.0118343
        k(   96) = (   0.3076923  -0.2307692   0.5000000), wk =   0.0118343
        k(   97) = (  -0.3076923  -0.0769231   0.0000000), wk =   0.0118343
        k(   98) = (   0.3846154  -0.3076923   0.0000000), wk =   0.0118343
        k(   99) = (  -0.3076923  -0.0769231  -0.2500000), wk =   0.0236686
        k(  100) = (   0.3846154  -0.3076923  -0.2500000), wk =   0.0236686
        k(  101) = (  -0.3076923  -0.0769231   0.5000000), wk =   0.0118343
        k(  102) = (   0.3846154  -0.3076923   0.5000000), wk =   0.0118343
        k(  103) = (  -0.3846154  -0.0769231   0.0000000), wk =   0.0118343
        k(  104) = (   0.4615385  -0.3846154   0.0000000), wk =   0.0118343
        k(  105) = (  -0.3846154  -0.0769231  -0.2500000), wk =   0.0236686
        k(  106) = (   0.4615385  -0.3846154  -0.2500000), wk =   0.0236686
        k(  107) = (  -0.3846154  -0.0769231   0.5000000), wk =   0.0118343
        k(  108) = (   0.4615385  -0.3846154   0.5000000), wk =   0.0118343
        k(  109) = (  -0.4615385  -0.0769231   0.0000000), wk =   0.0118343
        k(  110) = (  -0.4615385  -0.0769231  -0.2500000), wk =   0.0236686
        k(  111) = (  -0.4615385  -0.0769231   0.5000000), wk =   0.0118343
        k(  112) = (   0.3076923  -0.1538462   0.0000000), wk =   0.0059172
        k(  113) = (   0.3076923  -0.1538462  -0.2500000), wk =   0.0118343
        k(  114) = (   0.3076923  -0.1538462   0.5000000), wk =   0.0059172
        k(  115) = (  -0.2307692  -0.1538462   0.0000000), wk =   0.0118343
        k(  116) = (   0.3846154  -0.2307692   0.0000000), wk =   0.0118343
        k(  117) = (  -0.2307692  -0.1538462  -0.2500000), wk =   0.0236686
        k(  118) = (   0.3846154  -0.2307692  -0.2500000), wk =   0.0236686
        k(  119) = (  -0.2307692  -0.1538462   0.5000000), wk =   0.0118343
        k(  120) = (   0.3846154  -0.2307692   0.5000000), wk =   0.0118343
        k(  121) = (  -0.3076923  -0.1538462   0.0000000), wk =   0.0118343
        k(  122) = (   0.4615385  -0.3076923   0.0000000), wk =   0.0118343
        k(  123) = (  -0.3076923  -0.1538462  -0.2500000), wk =   0.0236686
        k(  124) = (   0.4615385  -0.3076923  -0.2500000), wk =   0.0236686
        k(  125) = (  -0.3076923  -0.1538462   0.5000000), wk =   0.0118343
        k(  126) = (   0.4615385  -0.3076923   0.5000000), wk =   0.0118343
        k(  127) = (  -0.3846154  -0.1538462   0.0000000), wk =   0.0118343
        k(  128) = (   0.5384615  -0.3846154   0.0000000), wk =   0.0118343
        k(  129) = (  -0.3846154  -0.1538462  -0.2500000), wk =   0.0236686
        k(  130) = (   0.5384615  -0.3846154  -0.2500000), wk =   0.0236686
        k(  131) = (  -0.3846154  -0.1538462   0.5000000), wk =   0.0118343
        k(  132) = (   0.5384615  -0.3846154   0.5000000), wk =   0.0118343
        k(  133) = (   0.4615385  -0.2307692   0.0000000), wk =   0.0059172
        k(  134) = (   0.4615385  -0.2307692  -0.2500000), wk =   0.0118343
        k(  135) = (   0.4615385  -0.2307692   0.5000000), wk =   0.0059172
        k(  136) = (  -0.3076923  -0.2307692   0.0000000), wk =   0.0118343
        k(  137) = (   0.5384615  -0.3076923   0.0000000), wk =   0.0118343
        k(  138) = (  -0.3076923  -0.2307692  -0.2500000), wk =   0.0236686
        k(  139) = (   0.5384615  -0.3076923  -0.2500000), wk =   0.0236686
        k(  140) = (  -0.3076923  -0.2307692   0.5000000), wk =   0.0118343
        k(  141) = (   0.5384615  -0.3076923   0.5000000), wk =   0.0118343
        k(  142) = (  -0.3846154  -0.2307692   0.0000000), wk =   0.0118343
        k(  143) = (  -0.3846154  -0.2307692  -0.2500000), wk =   0.0236686
        k(  144) = (  -0.3846154  -0.2307692   0.5000000), wk =   0.0118343
        k(  145) = (   0.6153846  -0.3076923   0.0000000), wk =   0.0059172
        k(  146) = (   0.6153846  -0.3076923  -0.2500000), wk =   0.0118343
        k(  147) = (   0.6153846  -0.3076923   0.5000000), wk =   0.0059172

     Dense  grid:    34301 G-vectors     FFT dimensions: (  30,  30,  96)

     Smooth grid:    12031 G-vectors     FFT dimensions: (  20,  20,  72)

     Dynamical RAM for                 wfc:       0.28 MB

     Dynamical RAM for     wfc (w. buffer):      41.03 MB

     Dynamical RAM for           str. fact:       0.52 MB

     Dynamical RAM for           local pot:       0.00 MB

     Dynamical RAM for          nlocal pot:       0.74 MB

     Dynamical RAM for                qrad:       0.44 MB

     Dynamical RAM for          rho,v,vnew:       3.55 MB

     Dynamical RAM for               rhoin:       1.18 MB

     Dynamical RAM for            rho*nmix:       8.37 MB

     Dynamical RAM for           G-vectors:       2.05 MB

     Dynamical RAM for          h,s,v(r/c):       0.03 MB

     Dynamical RAM for          <psi|beta>:       0.01 MB

     Dynamical RAM for                 psi:       0.55 MB

     Dynamical RAM for                hpsi:       0.55 MB

     Dynamical RAM for                spsi:       0.55 MB

     Dynamical RAM for      wfcinit/wfcrot:       0.75 MB

     Dynamical RAM for           addusdens:      24.60 MB

     Dynamical RAM for          addusforce:      28.00 MB

     Dynamical RAM for         addusstress:      26.17 MB

     Estimated static dynamical RAM per process >      62.23 MB

     Estimated max dynamical RAM per process >      90.23 MB

     Check: negative core charge=   -0.000010

     Initial potential from superposition of free atoms

     starting charge   15.99983, renormalised to   16.00000
     Starting wfcs are   16 randomized atomic wfcs

     total cpu time spent up to now is        6.2 secs

     Self-consistent Calculation

     iteration #  1     ecut=    45.00 Ry     beta= 0.70
     Davidson diagonalization with overlap
     ethr =  1.00E-02,  avg # of iterations =  2.8

     total cpu time spent up to now is       15.8 secs

     total energy              =     -49.66317304 Ry
     estimated scf accuracy    <       0.37699302 Ry

     iteration #  2     ecut=    45.00 Ry     beta= 0.70
     Davidson diagonalization with overlap
     ethr =  2.36E-03,  avg # of iterations =  2.7

     total cpu time spent up to now is       24.0 secs

     total energy              =     -49.71420820 Ry
     estimated scf accuracy    <       0.00436555 Ry

     iteration #  3     ecut=    45.00 Ry     beta= 0.70
     Davidson diagonalization with overlap
     c_bands:  1 eigenvalues not converged
     ethr =  2.73E-05,  avg # of iterations =  7.3

     total cpu time spent up to now is       35.6 secs

     total energy              =     -49.71457521 Ry
     estimated scf accuracy    <       0.00031176 Ry

     iteration #  4     ecut=    45.00 Ry     beta= 0.70
     Davidson diagonalization with overlap
     c_bands:  1 eigenvalues not converged
     c_bands:  1 eigenvalues not converged
     c_bands:  1 eigenvalues not converged
     c_bands:  1 eigenvalues not converged
     ethr =  1.95E-06,  avg # of iterations =  4.1

     total cpu time spent up to now is       43.6 secs

     total energy              =     -49.71459274 Ry
     estimated scf accuracy    <       0.00000210 Ry

     iteration #  5     ecut=    45.00 Ry     beta= 0.70
     Davidson diagonalization with overlap
     ethr =  1.31E-08,  avg # of iterations =  2.9

     total cpu time spent up to now is       52.2 secs

     total energy              =     -49.71459394 Ry
     estimated scf accuracy    <       0.00000016 Ry

     iteration #  6     ecut=    45.00 Ry     beta= 0.70
     Davidson diagonalization with overlap
     ethr =  9.71E-10,  avg # of iterations =  2.0

     total cpu time spent up to now is       60.3 secs

     total energy              =     -49.71459398 Ry
     estimated scf accuracy    <       0.00000002 Ry

     iteration #  7     ecut=    45.00 Ry     beta= 0.70
     Davidson diagonalization with overlap
     ethr =  1.50E-10,  avg # of iterations =  2.0

     total cpu time spent up to now is       75.4 secs

     End of self-consistent calculation

          k = 0.0000 0.0000 0.0000 (  1497 PWs)   bands (ev):

   -14.7001 -14.6548  -3.0621  -2.4981   1.7288   1.7303   1.7331   1.7346
     7.9712  13.0931  13.0987  13.0998

     occupation numbers 
     1.0000   1.0000   1.0000   1.0000   1.0000   1.0000   1.0000   1.0000
    -0.0000  -0.0000  -0.0000  -0.0000

          k = 0.0000 0.0000 0.0741 (  1480 PWs)   bands (ev):

   -14.6934 -14.6615  -2.9858  -2.5879   1.7291   1.7301   1.7333   1.7344
     8.3338  10.6648  13.0949  13.0994

     occupation numbers 
     1.0000   1.0000   1.0000   1.0000   1.0000   1.0000   1.0000   1.0000
    -0.0000  -0.0000  -0.0000  -0.0000

          k = 0.0000 0.0000-0.1483 (  1450 PWs)   bands (ev):

   -14.6775 -14.6775  -2.7935  -2.7935   1.7296   1.7296   1.7339   1.7339
     9.3282   9.3282  13.0965  13.0966

     occupation numbers 
     1.0000   1.0000   1.0000   1.0000   1.0000   1.0000   1.0000   1.0000
    -0.0000  -0.0000  -0.0000  -0.0000

          k = 0.0000 0.0888 0.0000 (  1489 PWs)   bands (ev):

   -14.5607 -14.5159  -2.8938  -2.3339   1.1718   1.1746   1.4428   1.4451
     8.1523  11.6567  13.1472  13.1698

     occupation numbers 
     1.0000   1.0000   1.0000   1.0000   1.0000   1.0000   1.0000   1.0000
    -0.0000  -0.0000  -0.0000  -0.0000

          k = 0.0000 0.0888 0.0741 (  1491 PWs)   bands (ev):

   -14.5542 -14.5226  -2.8181  -2.4229   1.1722   1.1742   1.4431   1.4448
     8.5132  10.8337  13.1567  13.1682

     occupation numbers 
     1.0000   1.0000   1.0000   1.0000   1.0000   1.0000   1.0000   1.0000
    -0.0000  -0.0000  -0.0000  -0.0000

          k = 0.0000 0.0888-0.1483 (  1484 PWs)   bands (ev):

   -14.5384 -14.5384  -2.6271  -2.6271   1.1732   1.1732   1.4439   1.4439
     9.5032   9.5032  13.1639  13.1639

     occupation numbers 
     1.0000   1.0000   1.0000   1.0000   1.0000   1.0000   1.0000   1.0000
    -0.0000  -0.0000  -0.0000  -0.0000

          k = 0.0000 0.1776 0.0000 (  1499 PWs)   bands (ev):

   -14.1439 -14.1007  -2.3925  -1.8453  -0.2606  -0.2545   0.7411   0.7447
     8.6958  12.1441  13.1040  13.1547

     occupation numbers 
     1.0000   1.0000   1.0000   1.0000   1.0000   1.0000   1.0000   1.0000
    -0.0000  -0.0000  -0.0000  -0.0000

          k = 0.0000 0.1776 0.0741 (  1498 PWs)   bands (ev):

   -14.1377 -14.1071  -2.3183  -1.9322  -0.2597  -0.2554   0.7417   0.7442
     9.0515  11.3346  13.1278  13.1520

     occupation numbers 
     1.0000   1.0000   1.0000   1.0000   1.0000   1.0000   1.0000   1.0000
    -0.0000  -0.0000  -0.0000  -0.0000

          k = 0.0000 0.1776-0.1483 (  1496 PWs)   bands (ev):

   -14.1224 -14.1224  -2.1315  -2.1315  -0.2576  -0.2576   0.7429   0.7429
    10.0266  10.0266  13.1432  13.1432

     occupation numbers 
     1.0000   1.0000   1.0000   1.0000   1.0000   1.0000   1.0000   1.0000
    -0.0000  -0.0000  -0.0000  -0.0000

          k = 0.0000 0.2665 0.0000 (  1503 PWs)   bands (ev):

   -13.4539 -13.4130  -2.1442  -2.1338  -1.5706  -1.0465  -0.0756  -0.0713
     9.6002  12.3968  12.5157  12.8647

     occupation numbers 
     1.0000   1.0000   1.0000   1.0000   1.0000   1.0000   1.0000   1.0000
    -0.0000  -0.0000  -0.0000  -0.0000

          k = 0.0000 0.2665 0.0741 (  1498 PWs)   bands (ev):

   -13.4480 -13.4191  -2.1427  -2.1354  -1.4993  -1.1294  -0.0749  -0.0719
     9.9437  12.0428  12.5007  12.6775

     occupation numbers 
     1.0000   1.0000   1.0000   1.0000   1.0000   1.0000   1.0000   1.0000
    -0.0000  -0.0000  -0.0000  -0.0000

          k = 0.0000 0.2665-0.1483 (  1500 PWs)   bands (ev):

   -13.4336 -13.4336  -2.1390  -2.1390  -1.3201  -1.3201  -0.0734  -0.0734
    10.8777  10.8777  12.5511  12.5512

     occupation numbers 
     1.0000   1.0000   1.0000   1.0000   1.0000   1.0000   1.0000   1.0000
    -0.0000  -0.0000  -0.0000  -0.0000

          k = 0.0000 0.3553 0.0000 (  1513 PWs)   bands (ev):

   -12.4990 -12.4613  -4.1702  -4.1553  -0.8014  -0.7967  -0.4579   0.0279
    10.3118  10.5003  10.8570  12.5505

     occupation numbers 
     1.0000   1.0000   1.0000   1.0000   1.0000   1.0000   1.0000   1.0000
    -0.0000  -0.0000  -0.0000  -0.0000

          k = 0.0000 0.3553 0.0741 (  1509 PWs)   bands (ev):

   -12.4935 -12.4669  -4.1680  -4.1575  -0.8007  -0.7974  -0.3915  -0.0484
    10.3204  10.4586  11.2183  12.5410

     occupation numbers 
     1.0000   1.0000   1.0000   1.0000   1.0000   1.0000   1.0000   1.0000
    -0.0000  -0.0000  -0.0000  -0.0000

          k = 0.0000 0.3553-0.1483 (  1498 PWs)   bands (ev):

   -12.4802 -12.4802  -4.1627  -4.1627  -0.7990  -0.7990  -0.2249  -0.2249
    10.3801  10.3801  12.1124  12.1124

     occupation numbers 
     1.0000   1.0000   1.0000   1.0000   1.0000   1.0000   1.0000   1.0000
    -0.0000  -0.0000  -0.0000  -0.0000

          k = 0.0000 0.4441 0.0000 (  1510 PWs)   bands (ev):

   -11.2963 -11.2627  -6.1547  -6.1352  -1.3276  -1.3225   0.8659   1.2829
     8.2095   8.4686  12.2283  12.3051

     occupation numbers 
     1.0000   1.0000   1.0000   1.0000   1.0000   1.0000   1.0000   1.0000
    -0.0000  -0.0000  -0.0000  -0.0000

          k = 0.0000 0.4441 0.0741 (  1509 PWs)   bands (ev):

   -11.2915 -11.2677  -6.1518  -6.1380  -1.3268  -1.3233   0.9237   1.2183
     8.2412   8.4246  12.2732  12.3116

     occupation numbers 
     1.0000   1.0000   1.0000   1.0000   1.0000   1.0000   1.0000   1.0000
    -0.0000  -0.0000  -0.0000  -0.0000

          k = 0.0000 0.4441-0.1483 (  1504 PWs)   bands (ev):

   -11.2796 -11.2796  -6.1449  -6.1449  -1.3251  -1.3251   1.0676   1.0676
     8.3269   8.3269  12.3035  12.3035

     occupation numbers 
     1.0000   1.0000   1.0000   1.0000   1.0000   1.0000   1.0000   1.0000
    -0.0000  -0.0000  -0.0000  -0.0000

          k = 0.0000 0.5329 0.0000 (  1510 PWs)   bands (ev):

    -9.9218  -9.8949  -7.9354  -7.9138  -1.6014  -1.5961   2.1033   2.3600
     6.6308   6.8898  12.1396  12.2043

     occupation numbers 
     1.0000   1.0000   1.0000   1.0000   1.0000   1.0000   1.0000   1.0000
    -0.0000  -0.0000  -0.0000  -0.0000

          k = 0.0000 0.5329 0.0741 (  1525 PWs)   bands (ev):

    -9.9179  -9.8989  -7.9322  -7.9170  -1.6006  -1.5969   2.1410   2.3226
     6.6600   6.8431  12.1491  12.1949

     occupation numbers 
     1.0000   1.0000   1.0000   1.0000   1.0000   1.0000   1.0000   1.0000
    -0.0000  -0.0000  -0.0000  -0.0000

          k = 0.0000 0.5329-0.1483 (  1516 PWs)   bands (ev):

    -9.9084  -9.9084  -7.9246  -7.9246  -1.5987  -1.5987   2.2319   2.2319
     6.7429   6.7429  12.1720  12.1720

     occupation numbers 
     1.0000   1.0000   1.0000   1.0000   1.0000   1.0000   1.0000   1.0000
    -0.0000  -0.0000  -0.0000  -0.0000

          k = 0.0769 0.1332 0.0000 (  1509 PWs)   bands (ev):

   -14.2827 -14.2389  -2.5590  -2.0074   0.2625   0.2654   0.8619   0.8639
     8.5149  11.9852  13.3736  13.4194

     occupation numbers 
     1.0000   1.0000   1.0000   1.0000   1.0000   1.0000   1.0000   1.0000
    -0.0000  -0.0000  -0.0000  -0.0000

          k = 0.0769 0.1332 0.0741 (  1499 PWs)   bands (ev):

   -14.2763 -14.2454  -2.4842  -2.0950   0.2629   0.2650   0.8622   0.8637
     8.8725  11.1701  13.3952  13.4168

     occupation numbers 
     1.0000   1.0000   1.0000   1.0000   1.0000   1.0000   1.0000   1.0000
    -0.0000  -0.0000  -0.0000  -0.0000

          k = 0.0769 0.1332-0.1483 (  1488 PWs)   bands (ev):

   -14.2609 -14.2609  -2.2960  -2.2960   0.2640   0.2640   0.8630   0.8630
     9.8531   9.8531  13.4095  13.4097

     occupation numbers 
     1.0000   1.0000   1.0000   1.0000   1.0000   1.0000   1.0000   1.0000
    -0.0000  -0.0000  -0.0000  -0.0000

          k = 0.0769 0.2221 0.0000 (  1498 PWs)   bands (ev):

   -13.7293 -13.6874  -1.8967  -1.3630  -1.2669  -1.2602  -0.0292  -0.0253
     9.2401  12.6069  13.2265  13.3309

     occupation numbers 
     1.0000   1.0000   1.0000   1.0000   1.0000   1.0000   1.0000   1.0000
    -0.0000  -0.0000  -0.0000  -0.0000

          k = 0.0769 0.2221 0.0741 (  1504 PWs)   bands (ev):

   -13.7232 -13.6937  -1.8243  -1.4475  -1.2659  -1.2612  -0.0287  -0.0258
     9.5900  11.8276  13.2359  13.3020

     occupation numbers 
     1.0000   1.0000   1.0000   1.0000   1.0000   1.0000   1.0000   1.0000
    -0.0000  -0.0000  -0.0000  -0.0000

          k = 0.0769 0.2221-0.1483 (  1506 PWs)   bands (ev):

   -13.7085 -13.7085  -1.6419  -1.6419  -1.2636  -1.2636  -0.0273  -0.0273
    10.5482  10.5482  13.2655  13.2658

     occupation numbers 
     1.0000   1.0000   1.0000   1.0000   1.0000   1.0000   1.0000   1.0000
    -0.0000  -0.0000  -0.0000  -0.0000

          k = 0.0769 0.3109 0.0000 (  1507 PWs)   bands (ev):

   -12.9067 -12.8677  -3.1507  -3.1390  -0.9264  -0.8741  -0.8686  -0.4226
    10.3238  11.2607  11.3903  13.2980

     occupation numbers 
     1.0000   1.0000   1.0000   1.0000   1.0000   1.0000   1.0000   1.0000
    -0.0000  -0.0000  -0.0000  -0.0000

          k = 0.0769 0.3109 0.0741 (  1506 PWs)   bands (ev):

   -12.9011 -12.8735  -3.1490  -3.1407  -0.8733  -0.8694  -0.8576  -0.5020
    10.6457  11.2916  11.3675  12.8398

     occupation numbers 
     1.0000   1.0000   1.0000   1.0000   1.0000   1.0000   1.0000   1.0000
    -0.0000  -0.0000  -0.0000  -0.0000

          k = 0.0769 0.3109-0.1483 (  1498 PWs)   bands (ev):

   -12.8873 -12.8873  -3.1448  -3.1448  -0.8714  -0.8714  -0.6851  -0.6851
    11.2382  11.2382  11.6905  11.6906

     occupation numbers 
     1.0000   1.0000   1.0000   1.0000   1.0000   1.0000   1.0000   1.0000
    -0.0000  -0.0000  -0.0000  -0.0000

          k = 0.0769 0.3997 0.0000 (  1516 PWs)   bands (ev):

   -11.8270 -11.7916  -5.1248  -5.1080  -1.5328  -1.5264   0.3056   0.7596
     9.1670   9.3773  11.7521  13.0155

     occupation numbers 
     1.0000   1.0000   1.0000   1.0000   1.0000   1.0000   1.0000   1.0000
    -0.0000  -0.0000  -0.0000  -0.0000

          k = 0.0769 0.3997 0.0741 (  1513 PWs)   bands (ev):

   -11.8219 -11.7968  -5.1223  -5.1105  -1.5318  -1.5273   0.3681   0.6887
     9.1922   9.3416  12.0760  13.0151

     occupation numbers 
     1.0000   1.0000   1.0000   1.0000   1.0000   1.0000   1.0000   1.0000
    -0.0000  -0.0000  -0.0000  -0.0000

          k = 0.0769 0.3997-0.1483 (  1516 PWs)   bands (ev):

   -11.8094 -11.8094  -5.1164  -5.1164  -1.5296  -1.5296   0.5242   0.5242
     9.2619   9.2619  12.8526  12.8528

     occupation numbers 
     1.0000   1.0000   1.0000   1.0000   1.0000   1.0000   1.0000   1.0000
    -0.0000  -0.0000  -0.0000  -0.0000

          k = 0.0769 0.4885 0.0000 (  1518 PWs)   bands (ev):

   -10.5213 -10.4905  -7.0116  -6.9906  -1.9458  -1.9391   1.6565   2.0102
     7.2708   7.5259  12.7980  12.8624

     occupation numbers 
     1.0000   1.0000   1.0000   1.0000   1.0000   1.0000   1.0000   1.0000
    -0.0000  -0.0000  -0.0000  -0.0000

          k = 0.0769 0.4885 0.0741 (  1519 PWs)   bands (ev):

   -10.5168 -10.4951  -7.0086  -6.9937  -1.9448  -1.9400   1.7064   1.9563
     7.3022   7.4827  12.8100  12.8561

     occupation numbers 
     1.0000   1.0000   1.0000   1.0000   1.0000   1.0000   1.0000   1.0000
    -0.0000  -0.0000  -0.0000  -0.0000

          k = 0.0769 0.4885-0.1483 (  1514 PWs)   bands (ev):

   -10.5060 -10.5060  -7.0011  -7.0011  -1.9424  -1.9424   1.8294   1.8294
     7.3866   7.3866  12.8349  12.8349

     occupation numbers 
     1.0000   1.0000   1.0000   1.0000   1.0000   1.0000   1.0000   1.0000
    -0.0000  -0.0000  -0.0000  -0.0000

          k = 0.0769 0.5774 0.0000 (  1519 PWs)   bands (ev):

    -9.3818  -9.3670  -8.3390  -8.3273  -2.0862  -2.0793   2.4860   2.6580
     6.3500   6.5657  12.7296  12.8050

     occupation numbers 
     1.0000   1.0000   1.0000   1.0000   1.0000   1.0000   1.0000   1.0000
    -0.0004  -0.0000  -0.0000  -0.0000

          k = 0.0769 0.5774 0.0741 (  1512 PWs)   bands (ev):

    -9.3796  -9.3691  -8.3374  -8.3291  -2.0852  -2.0803   2.5127   2.6345
     6.3723   6.5249  12.7405  12.7938

     occupation numbers 
     1.0000   1.0000   1.0000   1.0000   1.0000   1.0000   1.0000   1.0000
    -0.0003  -0.0000  -0.0000  -0.0000

          k = 0.0769 0.5774-0.1483 (  1522 PWs)   bands (ev):

    -9.3743  -9.3743  -8.3333  -8.3333  -2.0827  -2.0827   2.5752   2.5752
     6.4393   6.4393  12.7669  12.7669

     occupation numbers 
     1.0000   1.0000   1.0000   1.0000   1.0000   1.0000   1.0000   1.0000
    -0.0001  -0.0001  -0.0000  -0.0000

          k = 0.1538 0.2665 0.0000 (  1511 PWs)   bands (ev):

   -13.0434 -13.0039  -2.5147  -2.5091  -1.2293  -1.2253  -1.0841  -0.5745
    10.1461  11.6682  11.7618  13.3839

     occupation numbers 
     1.0000   1.0000   1.0000   1.0000   1.0000   1.0000   1.0000   1.0000
    -0.0000  -0.0000  -0.0000  -0.0000

          k = 0.1538 0.2665 0.0741 (  1512 PWs)   bands (ev):

   -13.0376 -13.0097  -2.5139  -2.5099  -1.2287  -1.2259  -1.0147  -0.6549
    10.4847  11.6817  11.7480  12.6395

     occupation numbers 
     1.0000   1.0000   1.0000   1.0000   1.0000   1.0000   1.0000   1.0000
    -0.0000  -0.0000  -0.0000  -0.0000

          k = 0.1538 0.2665-0.1483 (  1506 PWs)   bands (ev):

   -13.0237 -13.0237  -2.5119  -2.5119  -1.2273  -1.2273  -0.8403  -0.8403
    11.4106  11.4106  11.7148  11.7148

     occupation numbers 
     1.0000   1.0000   1.0000   1.0000   1.0000   1.0000   1.0000   1.0000
    -0.0000  -0.0000  -0.0000  -0.0000

          k = 0.1538 0.3553 0.0000 (  1506 PWs)   bands (ev):

   -12.0956 -12.0592  -4.1173  -4.1060  -2.2392  -2.2320   0.0168   0.4878
     9.8519   9.9836  11.4051  14.3633

     occupation numbers 
     1.0000   1.0000   1.0000   1.0000   1.0000   1.0000   1.0000   1.0000
    -0.0000  -0.0000  -0.0000  -0.0000

          k = 0.1538 0.3553 0.0741 (  1523 PWs)   bands (ev):

   -12.0903 -12.0647  -4.1157  -4.1077  -2.2382  -2.2331   0.0814   0.4140
     9.8695   9.9632  11.7256  13.7087

     occupation numbers 
     1.0000   1.0000   1.0000   1.0000   1.0000   1.0000   1.0000   1.0000
    -0.0000  -0.0000  -0.0000  -0.0000

          k = 0.1538 0.3553-0.1483 (  1520 PWs)   bands (ev):

   -12.0776 -12.0776  -4.1117  -4.1117  -2.2357  -2.2357   0.2430   0.2430
     9.9152   9.9152  12.5918  12.5918

     occupation numbers 
     1.0000   1.0000   1.0000   1.0000   1.0000   1.0000   1.0000   1.0000
    -0.0000  -0.0000  -0.0000  -0.0000

          k = 0.1538 0.4441 0.0000 (  1518 PWs)   bands (ev):

   -10.9056 -10.8733  -5.9151  -5.8977  -2.8725  -2.8630   1.3338   1.7392
     7.9761   8.1666  12.9989  14.4720

     occupation numbers 
     1.0000   1.0000   1.0000   1.0000   1.0000   1.0000   1.0000   1.0000
    -0.0000  -0.0000  -0.0000  -0.0000

          k = 0.1538 0.4441 0.0741 (  1517 PWs)   bands (ev):

   -10.9009 -10.8780  -5.9125  -5.9003  -2.8712  -2.8644   1.3901   1.6764
     8.0016   8.1366  13.2818  14.4659

     occupation numbers 
     1.0000   1.0000   1.0000   1.0000   1.0000   1.0000   1.0000   1.0000
    -0.0000  -0.0000  -0.0000  -0.0000

          k = 0.1538 0.4441-0.1483 (  1524 PWs)   bands (ev):

   -10.8895 -10.8895  -5.9064  -5.9064  -2.8678  -2.8678   1.5300   1.5300
     8.0668   8.0668  14.0136  14.0140

     occupation numbers 
     1.0000   1.0000   1.0000   1.0000   1.0000   1.0000   1.0000   1.0000
    -0.0000  -0.0000  -0.0000  -0.0000

          k = 0.1538 0.5329 0.0000 (  1532 PWs)   bands (ev):

    -9.5530  -9.5272  -7.6119  -7.5919  -3.1795  -3.1692   2.5955   2.8513
     6.4818   6.6661  14.3157  14.4299

     occupation numbers 
     1.0000   1.0000   1.0000   1.0000   1.0000   1.0000   1.0000   1.0000
    -0.0001  -0.0000  -0.0000  -0.0000

          k = 0.1538 0.5329 0.0741 (  1524 PWs)   bands (ev):

    -9.5492  -9.5310  -7.6090  -7.5948  -3.1780  -3.1707   2.6329   2.8140
     6.5032   6.6338  14.3332  14.4135

     occupation numbers 
     1.0000   1.0000   1.0000   1.0000   1.0000   1.0000   1.0000   1.0000
    -0.0001  -0.0000  -0.0000  -0.0000

          k = 0.1538 0.5329-0.1483 (  1520 PWs)   bands (ev):

    -9.5401  -9.5401  -7.6019  -7.6019  -3.1743  -3.1743   2.7235   2.7235
     6.5631   6.5631  14.3733  14.3733

     occupation numbers 
     1.0000   1.0000   1.0000   1.0000   1.0000   1.0000   1.0000   1.0000
    -0.0000  -0.0000  -0.0000  -0.0000

          k = 0.2308 0.3997 0.0000 (  1507 PWs)   bands (ev):

   -11.0361 -11.0033  -5.1572  -5.1487  -3.6055  -3.5990   1.2184   1.6394
     8.3101   8.4395  12.8256  15.1201

     occupation numbers 
     1.0000   1.0000   1.0000   1.0000   1.0000   1.0000   1.0000   1.0000
    -0.0000  -0.0000  -0.0000  -0.0000

          k = 0.2308 0.3997 0.0741 (  1523 PWs)   bands (ev):

   -11.0314 -11.0082  -5.1560  -5.1500  -3.6046  -3.6000   1.2766   1.5740
     8.3290   8.4204  13.0997  14.6823

     occupation numbers 
     1.0000   1.0000   1.0000   1.0000   1.0000   1.0000   1.0000   1.0000
    -0.0000  -0.0000  -0.0000  -0.0000

          k = 0.2308 0.3997-0.1483 (  1538 PWs)   bands (ev):

   -11.0199 -11.0199  -5.1530  -5.1530  -3.6023  -3.6023   1.4217   1.4217
     8.3746   8.3746  13.8216  13.8216

     occupation numbers 
     1.0000   1.0000   1.0000   1.0000   1.0000   1.0000   1.0000   1.0000
    -0.0000  -0.0000  -0.0000  -0.0000

          k = 0.2308 0.4885 0.0000 (  1525 PWs)   bands (ev):

    -9.7663  -9.7381  -6.5467  -6.5313  -4.3876  -4.3766   2.5718   2.9086
     6.7544   6.9058  14.5432  15.6154

     occupation numbers 
     1.0000   1.0000   1.0000   1.0000   1.0000   1.0000   1.0000   1.0000
    -0.0000  -0.0000  -0.0000  -0.0000

          k = 0.2308 0.4885 0.0741 (  1531 PWs)   bands (ev):

    -9.7622  -9.7423  -6.5445  -6.5336  -4.3860  -4.3782   2.6192   2.8573
     6.7756   6.8827  14.6915  15.4125

     occupation numbers 
     1.0000   1.0000   1.0000   1.0000   1.0000   1.0000   1.0000   1.0000
    -0.0000  -0.0000  -0.0000  -0.0000

          k = 0.2308 0.4885-0.1483 (  1534 PWs)   bands (ev):

    -9.7523  -9.7523  -6.5390  -6.5390  -4.3821  -4.3821   2.7363   2.7363
     6.8281   6.8281  15.0350  15.0350

     occupation numbers 
     1.0000   1.0000   1.0000   1.0000   1.0000   1.0000   1.0000   1.0000
    -0.0000  -0.0000  -0.0000  -0.0000

          k = 0.2308 0.5774 0.0000 (  1523 PWs)   bands (ev):

    -8.6666  -8.6531  -7.7283  -7.7203  -4.6078  -4.5951   3.4988   3.6644
     5.8914   5.9223  15.8405  16.1978

     occupation numbers 
     1.0000   1.0000   1.0000   1.0000   1.0000   1.0000   1.0000   1.0000
    -0.0235  -0.0200  -0.0000  -0.0000

          k = 0.2308 0.5774 0.0741 (  1536 PWs)   bands (ev):

    -8.6646  -8.6550  -7.7272  -7.7216  -4.6060  -4.5970   3.5250   3.6424
     5.8909   5.9132  15.6394  15.7367

     occupation numbers 
     1.0000   1.0000   1.0000   1.0000   1.0000   1.0000   1.0000   1.0000
    -0.0235  -0.0210  -0.0000  -0.0000

          k = 0.2308 0.5774-0.1483 (  1542 PWs)   bands (ev):

    -8.6598  -8.6598  -7.7245  -7.7245  -4.6015  -4.6015   3.5858   3.5858
     5.8972   5.8972  15.5296  15.5297

     occupation numbers 
     1.0000   1.0000   1.0000   1.0000   1.0000   1.0000   1.0000   1.0000
    -0.0228  -0.0228  -0.0000  -0.0000

          k = 0.3077 0.5329 0.0000 (  1529 PWs)   bands (ev):

    -8.5014  -8.4797  -7.2472  -7.2360  -5.5025  -5.4965   3.9071   4.1512
     5.4861   5.6394  15.4716  15.7546

     occupation numbers 
     1.0000   1.0000   1.0000   1.0000   1.0000   1.0000   1.0000   1.0005
     0.0809  -0.0222  -0.0000  -0.0000

          k = 0.3077 0.5329 0.0741 (  1528 PWs)   bands (ev):

    -8.4982  -8.4829  -7.2456  -7.2377  -5.5016  -5.4974   3.9428   4.1155
     5.5072   5.6154  15.3449  15.4223

     occupation numbers 
     1.0000   1.0000   1.0000   1.0000   1.0000   1.0000   1.0000   1.0003
     0.0589  -0.0139  -0.0000  -0.0000

          k = 0.3077 0.5329-0.1483 (  1546 PWs)   bands (ev):

    -8.4906  -8.4906  -7.2417  -7.2417  -5.4995  -5.4995   4.0292   4.0292
     5.5598   5.5598  15.2440  15.2440

     occupation numbers 
     1.0000   1.0000   1.0000   1.0000   1.0000   1.0000   1.0001   1.0001
     0.0156   0.0156  -0.0000  -0.0000

          k =-0.0769-0.0444 0.0000 (  1489 PWs)   bands (ev):

   -14.5607 -14.5159  -2.8938  -2.3339   1.1747   1.1775   1.4398   1.4422
     8.1522  11.6566  13.1436  13.1661

     occupation numbers 
     1.0000   1.0000   1.0000   1.0000   1.0000   1.0000   1.0000   1.0000
    -0.0000  -0.0000  -0.0000  -0.0000

          k =-0.0769-0.0444-0.0741 (  1491 PWs)   bands (ev):

   -14.5542 -14.5226  -2.8181  -2.4230   1.1751   1.1771   1.4402   1.4418
     8.5132  10.8337  13.1531  13.1646

     occupation numbers 
     1.0000   1.0000   1.0000   1.0000   1.0000   1.0000   1.0000   1.0000
    -0.0000  -0.0000  -0.0000  -0.0000

          k =-0.0769-0.0444 0.1483 (  1484 PWs)   bands (ev):

   -14.5384 -14.5384  -2.6271  -2.6271   1.1761   1.1761   1.4410   1.4410
     9.5032   9.5032  13.1603  13.1604

     occupation numbers 
     1.0000   1.0000   1.0000   1.0000   1.0000   1.0000   1.0000   1.0000
    -0.0000  -0.0000  -0.0000  -0.0000

          k =-0.1538-0.0888 0.0000 (  1499 PWs)   bands (ev):

   -14.1439 -14.1007  -2.3925  -1.8454  -0.2583  -0.2523   0.7387   0.7422
     8.6958  12.1440  13.1016  13.1523

     occupation numbers 
     1.0000   1.0000   1.0000   1.0000   1.0000   1.0000   1.0000   1.0000
    -0.0000  -0.0000  -0.0000  -0.0000

          k =-0.1538-0.0888-0.0741 (  1498 PWs)   bands (ev):

   -14.1377 -14.1071  -2.3184  -1.9322  -0.2574  -0.2531   0.7392   0.7417
     9.0515  11.3345  13.1254  13.1498

     occupation numbers 
     1.0000   1.0000   1.0000   1.0000   1.0000   1.0000   1.0000   1.0000
    -0.0000  -0.0000  -0.0000  -0.0000

          k =-0.1538-0.0888 0.1483 (  1496 PWs)   bands (ev):

   -14.1224 -14.1224  -2.1316  -2.1316  -0.2553  -0.2553   0.7404   0.7404
    10.0265  10.0266  13.1408  13.1408

     occupation numbers 
     1.0000   1.0000   1.0000   1.0000   1.0000   1.0000   1.0000   1.0000
    -0.0000  -0.0000  -0.0000  -0.0000

          k =-0.2308-0.1332 0.0000 (  1503 PWs)   bands (ev):

   -13.4539 -13.4130  -2.1425  -2.1322  -1.5707  -1.0467  -0.0776  -0.0733
     9.6002  12.3970  12.5165  12.8624

     occupation numbers 
     1.0000   1.0000   1.0000   1.0000   1.0000   1.0000   1.0000   1.0000
    -0.0000  -0.0000  -0.0000  -0.0000

          k =-0.2308-0.1332-0.0741 (  1498 PWs)   bands (ev):

   -13.4480 -13.4191  -2.1410  -2.1337  -1.4995  -1.1296  -0.0770  -0.0739
     9.9437  12.0427  12.5015  12.6786

     occupation numbers 
     1.0000   1.0000   1.0000   1.0000   1.0000   1.0000   1.0000   1.0000
    -0.0000  -0.0000  -0.0000  -0.0000

          k =-0.2308-0.1332 0.1483 (  1500 PWs)   bands (ev):

   -13.4336 -13.4336  -2.1373  -2.1373  -1.3203  -1.3203  -0.0754  -0.0754
    10.8776  10.8776  12.5520  12.5520

     occupation numbers 
     1.0000   1.0000   1.0000   1.0000   1.0000   1.0000   1.0000   1.0000
    -0.0000  -0.0000  -0.0000  -0.0000

          k =-0.3077-0.1776 0.0000 (  1513 PWs)   bands (ev):

   -12.4989 -12.4612  -4.1689  -4.1540  -0.8032  -0.7984  -0.4582   0.0276
    10.3128  10.5013  10.8570  12.5495

     occupation numbers 
     1.0000   1.0000   1.0000   1.0000   1.0000   1.0000   1.0000   1.0000
    -0.0000  -0.0000  -0.0000  -0.0000

          k =-0.3077-0.1776-0.0741 (  1509 PWs)   bands (ev):

   -12.4934 -12.4668  -4.1667  -4.1562  -0.8025  -0.7991  -0.3918  -0.0488
    10.3214  10.4596  11.2184  12.5400

     occupation numbers 
     1.0000   1.0000   1.0000   1.0000   1.0000   1.0000   1.0000   1.0000
    -0.0000  -0.0000  -0.0000  -0.0000

          k =-0.3077-0.1776 0.1483 (  1498 PWs)   bands (ev):

   -12.4801 -12.4801  -4.1615  -4.1615  -0.8008  -0.8008  -0.2252  -0.2252
    10.3810  10.3810  12.1124  12.1124

     occupation numbers 
     1.0000   1.0000   1.0000   1.0000   1.0000   1.0000   1.0000   1.0000
    -0.0000  -0.0000  -0.0000  -0.0000

          k =-0.3846-0.2221 0.0000 (  1510 PWs)   bands (ev):

   -11.2963 -11.2627  -6.1536  -6.1341  -1.3291  -1.3241   0.8653   1.2822
     8.2110   8.4701  12.2278  12.3043

     occupation numbers 
     1.0000   1.0000   1.0000   1.0000   1.0000   1.0000   1.0000   1.0000
    -0.0000  -0.0000  -0.0000  -0.0000

          k =-0.3846-0.2221-0.0741 (  1509 PWs)   bands (ev):

   -11.2915 -11.2676  -6.1508  -6.1369  -1.3284  -1.3248   0.9231   1.2176
     8.2427   8.4261  12.2725  12.3108

     occupation numbers 
     1.0000   1.0000   1.0000   1.0000   1.0000   1.0000   1.0000   1.0000
    -0.0000  -0.0000  -0.0000  -0.0000

          k =-0.3846-0.2221 0.1483 (  1504 PWs)   bands (ev):

   -11.2796 -11.2796  -6.1439  -6.1439  -1.3266  -1.3266   1.0670   1.0670
     8.3284   8.3284  12.3027  12.3027

     occupation numbers 
     1.0000   1.0000   1.0000   1.0000   1.0000   1.0000   1.0000   1.0000
    -0.0000  -0.0000  -0.0000  -0.0000

          k =-0.4615-0.2665 0.0000 (  1510 PWs)   bands (ev):

    -9.9221  -9.8952  -7.9341  -7.9125  -1.6028  -1.5976   2.1021   2.3587
     6.6330   6.8921  12.1390  12.2037

     occupation numbers 
     1.0000   1.0000   1.0000   1.0000   1.0000   1.0000   1.0000   1.0000
    -0.0000  -0.0000  -0.0000  -0.0000

          k =-0.4615-0.2665-0.0741 (  1525 PWs)   bands (ev):

    -9.9182  -9.8992  -7.9310  -7.9157  -1.6021  -1.5984   2.1397   2.3213
     6.6622   6.8454  12.1485  12.1942

     occupation numbers 
     1.0000   1.0000   1.0000   1.0000   1.0000   1.0000   1.0000   1.0000
    -0.0000  -0.0000  -0.0000  -0.0000

          k =-0.4615-0.2665 0.1483 (  1516 PWs)   bands (ev):

    -9.9087  -9.9087  -7.9233  -7.9233  -1.6002  -1.6002   2.2306   2.2306
     6.7451   6.7451  12.1714  12.1714

     occupation numbers 
     1.0000   1.0000   1.0000   1.0000   1.0000   1.0000   1.0000   1.0000
    -0.0000  -0.0000  -0.0000  -0.0000

          k = 0.1538 0.0000 0.0000 (  1509 PWs)   bands (ev):

   -14.2827 -14.2389  -2.5590  -2.0075   0.2652   0.2681   0.8590   0.8610
     8.5149  11.9851  13.3693  13.4150

     occupation numbers 
     1.0000   1.0000   1.0000   1.0000   1.0000   1.0000   1.0000   1.0000
    -0.0000  -0.0000  -0.0000  -0.0000

          k = 0.1538 0.0000-0.0741 (  1499 PWs)   bands (ev):

   -14.2763 -14.2454  -2.4843  -2.0951   0.2657   0.2677   0.8593   0.8608
     8.8725  11.1701  13.3909  13.4124

     occupation numbers 
     1.0000   1.0000   1.0000   1.0000   1.0000   1.0000   1.0000   1.0000
    -0.0000  -0.0000  -0.0000  -0.0000

          k = 0.1538 0.0000 0.1483 (  1488 PWs)   bands (ev):

   -14.2608 -14.2608  -2.2961  -2.2961   0.2667   0.2667   0.8601   0.8601
     9.8531   9.8531  13.4052  13.4053

     occupation numbers 
     1.0000   1.0000   1.0000   1.0000   1.0000   1.0000   1.0000   1.0000
    -0.0000  -0.0000  -0.0000  -0.0000

          k =-0.1538-0.1776 0.0000 (  1498 PWs)   bands (ev):

   -13.7293 -13.6874  -1.8968  -1.3630  -1.2657  -1.2590  -0.0306  -0.0266
     9.2401  12.6066  13.2268  13.3315

     occupation numbers 
     1.0000   1.0000   1.0000   1.0000   1.0000   1.0000   1.0000   1.0000
    -0.0000  -0.0000  -0.0000  -0.0000

          k = 0.2308-0.0444 0.0000 (  1498 PWs)   bands (ev):

   -13.7292 -13.6874  -1.8968  -1.3631  -1.2644  -1.2578  -0.0320  -0.0280
     9.2401  12.6066  13.2273  13.3318

     occupation numbers 
     1.0000   1.0000   1.0000   1.0000   1.0000   1.0000   1.0000   1.0000
    -0.0000  -0.0000  -0.0000  -0.0000

          k =-0.1538-0.1776-0.0741 (  1504 PWs)   bands (ev):

   -13.7232 -13.6936  -1.8243  -1.4476  -1.2647  -1.2600  -0.0300  -0.0272
     9.5900  11.8275  13.2361  13.3024

     occupation numbers 
     1.0000   1.0000   1.0000   1.0000   1.0000   1.0000   1.0000   1.0000
    -0.0000  -0.0000  -0.0000  -0.0000

          k = 0.2308-0.0444-0.0741 (  1504 PWs)   bands (ev):

   -13.7232 -13.6936  -1.8244  -1.4477  -1.2635  -1.2587  -0.0314  -0.0286
     9.5900  11.8274  13.2365  13.3028

     occupation numbers 
     1.0000   1.0000   1.0000   1.0000   1.0000   1.0000   1.0000   1.0000
    -0.0000  -0.0000  -0.0000  -0.0000

          k =-0.1538-0.1776 0.1483 (  1506 PWs)   bands (ev):

   -13.7085 -13.7085  -1.6419  -1.6419  -1.2624  -1.2624  -0.0286  -0.0286
    10.5482  10.5482  13.2658  13.2661

     occupation numbers 
     1.0000   1.0000   1.0000   1.0000   1.0000   1.0000   1.0000   1.0000
    -0.0000  -0.0000  -0.0000  -0.0000

          k = 0.2308-0.0444 0.1483 (  1506 PWs)   bands (ev):

   -13.7085 -13.7085  -1.6420  -1.6420  -1.2611  -1.2611  -0.0300  -0.0300
    10.5481  10.5482  13.2665  13.2671

     occupation numbers 
     1.0000   1.0000   1.0000   1.0000   1.0000   1.0000   1.0000   1.0000
    -0.0000  -0.0000  -0.0000  -0.0000

          k =-0.2308-0.2221 0.0000 (  1507 PWs)   bands (ev):

   -12.9067 -12.8677  -3.1495  -3.1377  -0.9265  -0.8756  -0.8701  -0.4227
    10.3238  11.2613  11.3908  13.2937

     occupation numbers 
     1.0000   1.0000   1.0000   1.0000   1.0000   1.0000   1.0000   1.0000
    -0.0000  -0.0000  -0.0000  -0.0000

          k = 0.3077-0.0888 0.0000 (  1507 PWs)   bands (ev):

   -12.9067 -12.8676  -3.1490  -3.1372  -0.9266  -0.8762  -0.8707  -0.4228
    10.3238  11.2618  11.3913  13.2968

     occupation numbers 
     1.0000   1.0000   1.0000   1.0000   1.0000   1.0000   1.0000   1.0000
    -0.0000  -0.0000  -0.0000  -0.0000

          k =-0.2308-0.2221-0.0741 (  1506 PWs)   bands (ev):

   -12.9010 -12.8734  -3.1478  -3.1394  -0.8749  -0.8709  -0.8578  -0.5021
    10.6456  11.2922  11.3681  12.8399

     occupation numbers 
     1.0000   1.0000   1.0000   1.0000   1.0000   1.0000   1.0000   1.0000
    -0.0000  -0.0000  -0.0000  -0.0000

          k = 0.3077-0.0888-0.0741 (  1506 PWs)   bands (ev):

   -12.9010 -12.8734  -3.1473  -3.1389  -0.8754  -0.8715  -0.8579  -0.5022
    10.6456  11.2926  11.3686  12.8399

     occupation numbers 
     1.0000   1.0000   1.0000   1.0000   1.0000   1.0000   1.0000   1.0000
    -0.0000  -0.0000  -0.0000  -0.0000

          k =-0.2308-0.2221 0.1483 (  1498 PWs)   bands (ev):

   -12.8873 -12.8873  -3.1436  -3.1436  -0.8729  -0.8729  -0.6853  -0.6853
    11.2383  11.2383  11.6911  11.6911

     occupation numbers 
     1.0000   1.0000   1.0000   1.0000   1.0000   1.0000   1.0000   1.0000
    -0.0000  -0.0000  -0.0000  -0.0000

          k = 0.3077-0.0888 0.1483 (  1498 PWs)   bands (ev):

   -12.8873 -12.8873  -3.1431  -3.1431  -0.8735  -0.8735  -0.6854  -0.6854
    11.2388  11.2388  11.6910  11.6910

     occupation numbers 
     1.0000   1.0000   1.0000   1.0000   1.0000   1.0000   1.0000   1.0000
    -0.0000  -0.0000  -0.0000  -0.0000

          k =-0.3077-0.2665 0.0000 (  1516 PWs)   bands (ev):

   -11.8270 -11.7915  -5.1237  -5.1069  -1.5342  -1.5279   0.3053   0.7592
     9.1681   9.3783  11.7522  13.0147

     occupation numbers 
     1.0000   1.0000   1.0000   1.0000   1.0000   1.0000   1.0000   1.0000
    -0.0000  -0.0000  -0.0000  -0.0000

          k = 0.3846-0.1332 0.0000 (  1516 PWs)   bands (ev):

   -11.8269 -11.7915  -5.1235  -5.1067  -1.5345  -1.5281   0.3052   0.7591
     9.1684   9.3787  11.7521  13.0143

     occupation numbers 
     1.0000   1.0000   1.0000   1.0000   1.0000   1.0000   1.0000   1.0000
    -0.0000  -0.0000  -0.0000  -0.0000

          k =-0.3077-0.2665-0.0741 (  1513 PWs)   bands (ev):

   -11.8218 -11.7968  -5.1212  -5.1094  -1.5333  -1.5288   0.3677   0.6883
     9.1932   9.3426  12.0761  13.0143

     occupation numbers 
     1.0000   1.0000   1.0000   1.0000   1.0000   1.0000   1.0000   1.0000
    -0.0000  -0.0000  -0.0000  -0.0000

          k = 0.3846-0.1332-0.0741 (  1513 PWs)   bands (ev):

   -11.8218 -11.7968  -5.1210  -5.1092  -1.5335  -1.5290   0.3676   0.6882
     9.1936   9.3430  12.0760  13.0139

     occupation numbers 
     1.0000   1.0000   1.0000   1.0000   1.0000   1.0000   1.0000   1.0000
    -0.0000  -0.0000  -0.0000  -0.0000

          k =-0.3077-0.2665 0.1483 (  1516 PWs)   bands (ev):

   -11.8093 -11.8093  -5.1153  -5.1153  -1.5311  -1.5311   0.5238   0.5238
     9.2629   9.2629  12.8524  12.8524

     occupation numbers 
     1.0000   1.0000   1.0000   1.0000   1.0000   1.0000   1.0000   1.0000
    -0.0000  -0.0000  -0.0000  -0.0000

          k = 0.3846-0.1332 0.1483 (  1516 PWs)   bands (ev):

   -11.8093 -11.8093  -5.1151  -5.1151  -1.5313  -1.5313   0.5237   0.5237
     9.2633   9.2633  12.8519  12.8522

     occupation numbers 
     1.0000   1.0000   1.0000   1.0000   1.0000   1.0000   1.0000   1.0000
    -0.0000  -0.0000  -0.0000  -0.0000

          k =-0.3846-0.3109 0.0000 (  1518 PWs)   bands (ev):

   -10.5214 -10.4906  -7.0106  -6.9895  -1.9472  -1.9405   1.6557   2.0093
     7.2725   7.5275  12.7974  12.8617

     occupation numbers 
     1.0000   1.0000   1.0000   1.0000   1.0000   1.0000   1.0000   1.0000
    -0.0000  -0.0000  -0.0000  -0.0000

          k = 0.4615-0.1776 0.0000 (  1518 PWs)   bands (ev):

   -10.5213 -10.4906  -7.0105  -6.9895  -1.9473  -1.9405   1.6556   2.0091
     7.2727   7.5278  12.7972  12.8616

     occupation numbers 
     1.0000   1.0000   1.0000   1.0000   1.0000   1.0000   1.0000   1.0000
    -0.0000  -0.0000  -0.0000  -0.0000

          k =-0.3846-0.3109-0.0741 (  1519 PWs)   bands (ev):

   -10.5169 -10.4951  -7.0075  -6.9926  -1.9462  -1.9414   1.7055   1.9554
     7.3038   7.4843  12.8093  12.8554

     occupation numbers 
     1.0000   1.0000   1.0000   1.0000   1.0000   1.0000   1.0000   1.0000
    -0.0000  -0.0000  -0.0000  -0.0000

          k = 0.4615-0.1776-0.0741 (  1519 PWs)   bands (ev):

   -10.5169 -10.4951  -7.0074  -6.9926  -1.9463  -1.9415   1.7054   1.9553
     7.3041   7.4846  12.8091  12.8552

     occupation numbers 
     1.0000   1.0000   1.0000   1.0000   1.0000   1.0000   1.0000   1.0000
    -0.0000  -0.0000  -0.0000  -0.0000

          k =-0.3846-0.3109 0.1483 (  1514 PWs)   bands (ev):

   -10.5060 -10.5060  -7.0000  -7.0000  -1.9438  -1.9438   1.8285   1.8285
     7.3883   7.3883  12.8342  12.8342

     occupation numbers 
     1.0000   1.0000   1.0000   1.0000   1.0000   1.0000   1.0000   1.0000
    -0.0000  -0.0000  -0.0000  -0.0000

          k = 0.4615-0.1776 0.1483 (  1514 PWs)   bands (ev):

   -10.5060 -10.5060  -7.0000  -7.0000  -1.9439  -1.9439   1.8284   1.8284
     7.3885   7.3885  12.8341  12.8341

     occupation numbers 
     1.0000   1.0000   1.0000   1.0000   1.0000   1.0000   1.0000   1.0000
    -0.0000  -0.0000  -0.0000  -0.0000

          k =-0.4615-0.3553 0.0000 (  1519 PWs)   bands (ev):

    -9.3826  -9.3678  -8.3372  -8.3254  -2.0876  -2.0807   2.4844   2.6566
     6.3523   6.5682  12.7289  12.8043

     occupation numbers 
     1.0000   1.0000   1.0000   1.0000   1.0000   1.0000   1.0000   1.0000
    -0.0004  -0.0000  -0.0000  -0.0000

          k =-0.4615-0.3553-0.0741 (  1512 PWs)   bands (ev):

    -9.3804  -9.3699  -8.3355  -8.3272  -2.0866  -2.0817   2.5112   2.6331
     6.3746   6.5274  12.7398  12.7931

     occupation numbers 
     1.0000   1.0000   1.0000   1.0000   1.0000   1.0000   1.0000   1.0000
    -0.0003  -0.0000  -0.0000  -0.0000

          k =-0.4615-0.3553 0.1483 (  1522 PWs)   bands (ev):

    -9.3751  -9.3751  -8.3315  -8.3315  -2.0841  -2.0841   2.5737   2.5737
     6.4418   6.4418  12.7662  12.7662

     occupation numbers 
     1.0000   1.0000   1.0000   1.0000   1.0000   1.0000   1.0000   1.0000
    -0.0001  -0.0001  -0.0000  -0.0000

          k = 0.3077 0.0000 0.0000 (  1511 PWs)   bands (ev):

   -13.0433 -13.0038  -2.5126  -2.5070  -1.2316  -1.2276  -1.0843  -0.5747
    10.1461  11.6691  11.7627  13.3837

     occupation numbers 
     1.0000   1.0000   1.0000   1.0000   1.0000   1.0000   1.0000   1.0000
    -0.0000  -0.0000  -0.0000  -0.0000

          k = 0.3077 0.0000-0.0741 (  1512 PWs)   bands (ev):

   -13.0376 -13.0097  -2.5118  -2.5078  -1.2310  -1.2282  -1.0148  -0.6551
    10.4847  11.6826  11.7489  12.6393

     occupation numbers 
     1.0000   1.0000   1.0000   1.0000   1.0000   1.0000   1.0000   1.0000
    -0.0000  -0.0000  -0.0000  -0.0000

          k = 0.3077 0.0000 0.1483 (  1506 PWs)   bands (ev):

   -13.0237 -13.0237  -2.5098  -2.5098  -1.2296  -1.2296  -0.8404  -0.8404
    11.4105  11.4105  11.7157  11.7157

     occupation numbers 
     1.0000   1.0000   1.0000   1.0000   1.0000   1.0000   1.0000   1.0000
    -0.0000  -0.0000  -0.0000  -0.0000

          k =-0.2308-0.3109 0.0000 (  1506 PWs)   bands (ev):

   -12.0956 -12.0592  -4.1165  -4.1052  -2.2402  -2.2330   0.0167   0.4877
     9.8523   9.9839  11.4051  14.3635

     occupation numbers 
     1.0000   1.0000   1.0000   1.0000   1.0000   1.0000   1.0000   1.0000
    -0.0000  -0.0000  -0.0000  -0.0000

          k = 0.3846-0.0444 0.0000 (  1506 PWs)   bands (ev):

   -12.0955 -12.0592  -4.1155  -4.1042  -2.2413  -2.2341   0.0165   0.4874
     9.8532   9.9848  11.4051  14.3632

     occupation numbers 
     1.0000   1.0000   1.0000   1.0000   1.0000   1.0000   1.0000   1.0000
    -0.0000  -0.0000  -0.0000  -0.0000

          k =-0.2308-0.3109-0.0741 (  1523 PWs)   bands (ev):

   -12.0903 -12.0646  -4.1149  -4.1069  -2.2392  -2.2340   0.0813   0.4138
     9.8699   9.9635  11.7256  13.7088

     occupation numbers 
     1.0000   1.0000   1.0000   1.0000   1.0000   1.0000   1.0000   1.0000
    -0.0000  -0.0000  -0.0000  -0.0000

          k = 0.3846-0.0444-0.0741 (  1523 PWs)   bands (ev):

   -12.0903 -12.0646  -4.1139  -4.1059  -2.2403  -2.2352   0.0810   0.4136
     9.8708   9.9644  11.7256  13.7085

     occupation numbers 
     1.0000   1.0000   1.0000   1.0000   1.0000   1.0000   1.0000   1.0000
    -0.0000  -0.0000  -0.0000  -0.0000

          k =-0.2308-0.3109 0.1483 (  1520 PWs)   bands (ev):

   -12.0775 -12.0775  -4.1109  -4.1109  -2.2366  -2.2366   0.2429   0.2429
     9.9155   9.9155  12.5919  12.5919

     occupation numbers 
     1.0000   1.0000   1.0000   1.0000   1.0000   1.0000   1.0000   1.0000
    -0.0000  -0.0000  -0.0000  -0.0000

          k = 0.3846-0.0444 0.1483 (  1520 PWs)   bands (ev):

   -12.0775 -12.0775  -4.1099  -4.1099  -2.2377  -2.2377   0.2427   0.2427
     9.9164   9.9164  12.5917  12.5917

     occupation numbers 
     1.0000   1.0000   1.0000   1.0000   1.0000   1.0000   1.0000   1.0000
    -0.0000  -0.0000  -0.0000  -0.0000

          k =-0.3077-0.3553 0.0000 (  1518 PWs)   bands (ev):

   -10.9056 -10.8733  -5.9141  -5.8968  -2.8737  -2.8642   1.3334   1.7387
     7.9771   8.1675  12.9989  14.4711

     occupation numbers 
     1.0000   1.0000   1.0000   1.0000   1.0000   1.0000   1.0000   1.0000
    -0.0000  -0.0000  -0.0000  -0.0000

          k = 0.4615-0.0888 0.0000 (  1518 PWs)   bands (ev):

   -10.9056 -10.8733  -5.9138  -5.8964  -2.8741  -2.8647   1.3331   1.7384
     7.9778   8.1682  12.9988  14.4705

     occupation numbers 
     1.0000   1.0000   1.0000   1.0000   1.0000   1.0000   1.0000   1.0000
    -0.0000  -0.0000  -0.0000  -0.0000

          k =-0.3077-0.3553-0.0741 (  1517 PWs)   bands (ev):

   -10.9009 -10.8780  -5.9116  -5.8993  -2.8723  -2.8656   1.3897   1.6760
     8.0026   8.1375  13.2819  14.4652

     occupation numbers 
     1.0000   1.0000   1.0000   1.0000   1.0000   1.0000   1.0000   1.0000
    -0.0000  -0.0000  -0.0000  -0.0000

          k = 0.4615-0.0888-0.0741 (  1517 PWs)   bands (ev):

   -10.9009 -10.8780  -5.9112  -5.8990  -2.8728  -2.8660   1.3894   1.6757
     8.0033   8.1382  13.2817  14.4645

     occupation numbers 
     1.0000   1.0000   1.0000   1.0000   1.0000   1.0000   1.0000   1.0000
    -0.0000  -0.0000  -0.0000  -0.0000

          k =-0.3077-0.3553 0.1483 (  1524 PWs)   bands (ev):

   -10.8895 -10.8895  -5.9055  -5.9055  -2.8690  -2.8690   1.5296   1.5296
     8.0677   8.0677  14.0139  14.0142

     occupation numbers 
     1.0000   1.0000   1.0000   1.0000   1.0000   1.0000   1.0000   1.0000
    -0.0000  -0.0000  -0.0000  -0.0000

          k = 0.4615-0.0888 0.1483 (  1524 PWs)   bands (ev):

   -10.8895 -10.8895  -5.9051  -5.9051  -2.8694  -2.8694   1.5293   1.5293
     8.0685   8.0685  14.0132  14.0135

     occupation numbers 
     1.0000   1.0000   1.0000   1.0000   1.0000   1.0000   1.0000   1.0000
    -0.0000  -0.0000  -0.0000  -0.0000

          k =-0.3846-0.3997 0.0000 (  1532 PWs)   bands (ev):

    -9.5533  -9.5275  -7.6106  -7.5906  -3.1807  -3.1704   2.5944   2.8501
     6.4837   6.6680  14.3150  14.4291

     occupation numbers 
     1.0000   1.0000   1.0000   1.0000   1.0000   1.0000   1.0000   1.0000
    -0.0001  -0.0000  -0.0000  -0.0000

          k = 0.5385-0.1332 0.0000 (  1532 PWs)   bands (ev):

    -9.5533  -9.5275  -7.6105  -7.5905  -3.1808  -3.1705   2.5942   2.8499
     6.4840   6.6683  14.3148  14.4290

     occupation numbers 
     1.0000   1.0000   1.0000   1.0000   1.0000   1.0000   1.0000   1.0000
    -0.0001  -0.0000  -0.0000  -0.0000

          k =-0.3846-0.3997-0.0741 (  1524 PWs)   bands (ev):

    -9.5495  -9.5313  -7.6077  -7.5935  -3.1792  -3.1719   2.6318   2.8128
     6.5051   6.6357  14.3325  14.4129

     occupation numbers 
     1.0000   1.0000   1.0000   1.0000   1.0000   1.0000   1.0000   1.0000
    -0.0001  -0.0000  -0.0000  -0.0000

          k = 0.5385-0.1332-0.0741 (  1524 PWs)   bands (ev):

    -9.5495  -9.5313  -7.6076  -7.5935  -3.1793  -3.1720   2.6316   2.8126
     6.5054   6.6360  14.3323  14.4126

     occupation numbers 
     1.0000   1.0000   1.0000   1.0000   1.0000   1.0000   1.0000   1.0000
    -0.0001  -0.0000  -0.0000  -0.0000

          k =-0.3846-0.3997 0.1483 (  1520 PWs)   bands (ev):

    -9.5404  -9.5404  -7.6006  -7.6006  -3.1756  -3.1756   2.7224   2.7224
     6.5649   6.5649  14.3726  14.3726

     occupation numbers 
     1.0000   1.0000   1.0000   1.0000   1.0000   1.0000   1.0000   1.0000
    -0.0000  -0.0000  -0.0000  -0.0000

          k = 0.5385-0.1332 0.1483 (  1520 PWs)   bands (ev):

    -9.5404  -9.5404  -7.6006  -7.6006  -3.1757  -3.1757   2.7222   2.7222
     6.5653   6.5653  14.3724  14.3724

     occupation numbers 
     1.0000   1.0000   1.0000   1.0000   1.0000   1.0000   1.0000   1.0000
    -0.0000  -0.0000  -0.0000  -0.0000

          k = 0.4615 0.0000 0.0000 (  1507 PWs)   bands (ev):

   -11.0361 -11.0033  -5.1556  -5.1471  -3.6073  -3.6007   1.2180   1.6389
     8.3114   8.4407  12.8256  15.1193

     occupation numbers 
     1.0000   1.0000   1.0000   1.0000   1.0000   1.0000   1.0000   1.0000
    -0.0000  -0.0000  -0.0000  -0.0000

          k = 0.4615 0.0000-0.0741 (  1523 PWs)   bands (ev):

   -11.0314 -11.0081  -5.1544  -5.1484  -3.6064  -3.6017   1.2761   1.5735
     8.3302   8.4216  13.0997  14.6817

     occupation numbers 
     1.0000   1.0000   1.0000   1.0000   1.0000   1.0000   1.0000   1.0000
    -0.0000  -0.0000  -0.0000  -0.0000

          k = 0.4615 0.0000 0.1483 (  1538 PWs)   bands (ev):

   -11.0198 -11.0198  -5.1514  -5.1514  -3.6041  -3.6041   1.4212   1.4212
     8.3758   8.3758  13.8213  13.8213

     occupation numbers 
     1.0000   1.0000   1.0000   1.0000   1.0000   1.0000   1.0000   1.0000
    -0.0000  -0.0000  -0.0000  -0.0000

          k =-0.3077-0.4441 0.0000 (  1525 PWs)   bands (ev):

    -9.7664  -9.7381  -6.5459  -6.5305  -4.3884  -4.3774   2.5714   2.9082
     6.7552   6.9064  14.5433  15.6151

     occupation numbers 
     1.0000   1.0000   1.0000   1.0000   1.0000   1.0000   1.0000   1.0000
    -0.0000  -0.0000  -0.0000  -0.0000

          k = 0.5385-0.0444 0.0000 (  1525 PWs)   bands (ev):

    -9.7664  -9.7381  -6.5452  -6.5298  -4.3891  -4.3782   2.5709   2.9076
     6.7561   6.9074  14.5433  16.3406

     occupation numbers 
     1.0000   1.0000   1.0000   1.0000   1.0000   1.0000   1.0000   1.0000
    -0.0000  -0.0000  -0.0000  -0.0000

          k =-0.3077-0.4441-0.0741 (  1531 PWs)   bands (ev):

    -9.7623  -9.7423  -6.5437  -6.5328  -4.3868  -4.3791   2.6188   2.8569
     6.7763   6.8833  14.6915  15.4124

     occupation numbers 
     1.0000   1.0000   1.0000   1.0000   1.0000   1.0000   1.0000   1.0000
    -0.0000  -0.0000  -0.0000  -0.0000

          k = 0.5385-0.0444-0.0741 (  1531 PWs)   bands (ev):

    -9.7623  -9.7423  -6.5430  -6.5321  -4.3875  -4.3798   2.6183   2.8563
     6.7773   6.8843  14.6914  15.4116

     occupation numbers 
     1.0000   1.0000   1.0000   1.0000   1.0000   1.0000   1.0000   1.0000
    -0.0000  -0.0000  -0.0000  -0.0000

          k =-0.3077-0.4441 0.1483 (  1534 PWs)   bands (ev):

    -9.7523  -9.7523  -6.5382  -6.5382  -4.3829  -4.3829   2.7359   2.7359
     6.8288   6.8288  15.0350  15.0350

     occupation numbers 
     1.0000   1.0000   1.0000   1.0000   1.0000   1.0000   1.0000   1.0000
    -0.0000  -0.0000  -0.0000  -0.0000

          k = 0.5385-0.0444 0.1483 (  1534 PWs)   bands (ev):

    -9.7523  -9.7523  -6.5376  -6.5376  -4.3837  -4.3837   2.7354   2.7354
     6.8298   6.8298  15.0345  15.0345

     occupation numbers 
     1.0000   1.0000   1.0000   1.0000   1.0000   1.0000   1.0000   1.0000
    -0.0000  -0.0000  -0.0000  -0.0000

          k =-0.3846-0.4885 0.0000 (  1523 PWs)   bands (ev):

    -8.6676  -8.6540  -7.7263  -7.7183  -4.6090  -4.5962   3.4973   3.6630
     5.8934   5.9244  15.8398  16.1975

     occupation numbers 
     1.0000   1.0000   1.0000   1.0000   1.0000   1.0000   1.0000   1.0000
    -0.0233  -0.0198  -0.0000  -0.0000

          k =-0.3846-0.4885-0.0741 (  1536 PWs)   bands (ev):

    -8.6656  -8.6560  -7.7252  -7.7196  -4.6072  -4.5981   3.5235   3.6410
     5.8929   5.9153  15.6387  15.7365

     occupation numbers 
     1.0000   1.0000   1.0000   1.0000   1.0000   1.0000   1.0000   1.0000
    -0.0233  -0.0208  -0.0000  -0.0000

          k =-0.3846-0.4885 0.1483 (  1542 PWs)   bands (ev):

    -8.6607  -8.6607  -7.7225  -7.7225  -4.6027  -4.6027   3.5843   3.5843
     5.8993   5.8993  15.5292  15.5292

     occupation numbers 
     1.0000   1.0000   1.0000   1.0000   1.0000   1.0000   1.0000   1.0000
    -0.0226  -0.0226  -0.0000  -0.0000

          k = 0.6154 0.0000 0.0000 (  1529 PWs)   bands (ev):

    -8.5017  -8.4800  -7.2460  -7.2348  -5.5033  -5.4973   3.9060   4.1500
     5.4875   5.6407  15.4709  15.7549

     occupation numbers 
     1.0000   1.0000   1.0000   1.0000   1.0000   1.0000   1.0000   1.0005
     0.0793  -0.0226  -0.0000  -0.0000

          k = 0.6154 0.0000-0.0741 (  1528 PWs)   bands (ev):

    -8.4986  -8.4832  -7.2444  -7.2365  -5.5025  -5.4983   3.9417   4.1144
     5.5086   5.6167  15.3443  15.4223

     occupation numbers 
     1.0000   1.0000   1.0000   1.0000   1.0000   1.0000   1.0000   1.0003
     0.0575  -0.0144  -0.0000  -0.0000

          k = 0.6154 0.0000 0.1483 (  1546 PWs)   bands (ev):

    -8.4910  -8.4910  -7.2405  -7.2405  -5.5004  -5.5004   4.0281   4.0281
     5.5612   5.5612  15.2436  15.2436

     occupation numbers 
     1.0000   1.0000   1.0000   1.0000   1.0000   1.0000   1.0001   1.0001
     0.0147   0.0147  -0.0000  -0.0000

     the Fermi energy is     5.2420 ev

!    total energy              =     -49.71459398 Ry
     estimated scf accuracy    <          3.1E-10 Ry
     smearing contrib. (-TS)   =       0.00024843 Ry
     internal energy E=F+TS    =     -49.71484242 Ry

     The total energy is F=E-TS. E is the sum of the following terms:
     one-electron contribution =     -29.91348757 Ry
     hartree contribution      =      21.73982479 Ry
     xc contribution           =     -18.53787711 Ry
     ewald contribution        =     -23.00330253 Ry

     convergence has been achieved in   7 iterations

     Forces acting on atoms (cartesian axes, Ry/au):

     atom    1 type  1   force =     0.00000000   -0.00029274    0.00000000
     atom    2 type  1   force =     0.00000000    0.00029274    0.00000000
     atom    3 type  1   force =    -0.00000000    0.00029339    0.00000000
     atom    4 type  1   force =     0.00000000   -0.00029339    0.00000000
     The non-local contrib.  to forces
     atom    1 type  1   force =    -0.00000000   -0.00026124    0.00000000
     atom    2 type  1   force =     0.00000000    0.00026124    0.00000000
     atom    3 type  1   force =     0.00000000    0.00026163    0.00000000
     atom    4 type  1   force =    -0.00000000   -0.00026163    0.00000000
     The ionic contribution  to forces
     atom    1 type  1   force =    -0.00000000   -0.00098176   -0.00000000
     atom    2 type  1   force =    -0.00000000    0.00098176    0.00000000
     atom    3 type  1   force =    -0.00000000    0.00098202   -0.00000000
     atom    4 type  1   force =     0.00000000   -0.00098202    0.00000000
     The local contribution  to forces
     atom    1 type  1   force =     0.00000000    0.00094165    0.00000000
     atom    2 type  1   force =    -0.00000000   -0.00094165    0.00000000
     atom    3 type  1   force =    -0.00000000   -0.00094248    0.00000000
     atom    4 type  1   force =    -0.00000000    0.00094248    0.00000000
     The core correction contribution to forces
     atom    1 type  1   force =     0.00000000    0.00000849   -0.00000000
     atom    2 type  1   force =     0.00000000   -0.00000849   -0.00000000
     atom    3 type  1   force =    -0.00000000   -0.00000776   -0.00000000
     atom    4 type  1   force =     0.00000000    0.00000776   -0.00000000
     The Hubbard contrib.    to forces
     atom    1 type  1   force =     0.00000000    0.00000000    0.00000000
     atom    2 type  1   force =     0.00000000    0.00000000    0.00000000
     atom    3 type  1   force =     0.00000000    0.00000000    0.00000000
     atom    4 type  1   force =     0.00000000    0.00000000    0.00000000
     The SCF correction term to forces
     atom    1 type  1   force =    -0.00000000    0.00000012   -0.00000000
     atom    2 type  1   force =    -0.00000000   -0.00000012   -0.00000000
     atom    3 type  1   force =     0.00000000   -0.00000003   -0.00000000
     atom    4 type  1   force =    -0.00000000    0.00000003   -0.00000000

     Total force =     0.000586     Total SCF correction =     0.000000


     Computing stress (Cartesian axis) and pressure

          total   stress  (Ry/bohr**3)                   (kbar)     P=      -12.62
  -0.00012985   0.00000000   0.00000000          -19.10        0.00        0.00
   0.00000000  -0.00012834   0.00000000            0.00      -18.88        0.00
   0.00000000   0.00000000   0.00000086            0.00        0.00        0.13

     kinetic stress (kbar)   9266.20      0.00      0.00
                                0.00   9265.51      0.00
                                0.00      0.00  10528.35

     local   stress (kbar) -26774.34     -0.00     -0.00
                               -0.00 -26778.74     -0.00
                               -0.00     -0.00  27091.62

     nonloc. stress (kbar)   1801.56     -0.00      0.00
                               -0.00   1801.71      0.00
                                0.00      0.00   1655.17

     hartree stress (kbar)   9939.52     -0.00      0.00
                               -0.00   9940.14      0.00
                                0.00      0.00  -9112.09

     exc-cor stress (kbar)   -164.92      0.00      0.00
                                0.00   -164.90     -0.00
                                0.00     -0.00   -269.56

     corecor stress (kbar)  -2235.97     -0.00      0.00
                               -0.00  -2235.99      0.00
                                0.00      0.00  -2197.76

     ewald   stress (kbar)   8148.85     -0.00     -0.00
                               -0.00   8153.39      0.00
                               -0.00      0.00 -27695.59

     hubbard stress (kbar)      0.00      0.00      0.00
                                0.00      0.00      0.00
                                0.00      0.00      0.00

     DFT-D   stress (kbar)      0.00      0.00      0.00
                                0.00      0.00      0.00
                                0.00      0.00      0.00

     XDM     stress (kbar)      0.00      0.00      0.00
                                0.00      0.00      0.00
                                0.00      0.00      0.00

     dft-nl  stress (kbar)      0.00      0.00      0.00
                                0.00      0.00      0.00
                                0.00      0.00      0.00

     TS-vdW  stress (kbar)      0.00      0.00      0.00
                                0.00      0.00      0.00
                                0.00      0.00      0.00



     Writing output data file ./tmp/C.save/

     init_run     :      5.75s CPU      6.01s WALL (       1 calls)
     electrons    :     65.68s CPU     69.20s WALL (       1 calls)
     forces       :      3.25s CPU      4.75s WALL (       1 calls)
     stress       :      9.97s CPU     10.90s WALL (       1 calls)

     Called by init_run:
     wfcinit      :      4.35s CPU      4.50s WALL (       1 calls)
     wfcinit:atom :      0.13s CPU      0.14s WALL (     147 calls)
     wfcinit:wfcr :      3.38s CPU      3.50s WALL (     147 calls)
     potinit      :      0.32s CPU      0.37s WALL (       1 calls)
     hinit0       :      0.89s CPU      0.91s WALL (       1 calls)

     Called by electrons:
     c_bands      :     53.98s CPU     57.11s WALL (       7 calls)
     sum_band     :      9.80s CPU     10.07s WALL (       7 calls)
     v_of_rho     :      1.51s CPU      1.62s WALL (       8 calls)
     v_h          :      0.08s CPU      0.09s WALL (       8 calls)
     v_xc         :      2.23s CPU      2.50s WALL (      10 calls)
     newd         :      0.44s CPU      0.49s WALL (       8 calls)
     mix_rho      :      0.10s CPU      0.10s WALL (       7 calls)

     Called by c_bands:
     init_us_2    :      2.95s CPU      3.33s WALL (    2499 calls)
     cegterg      :     50.71s CPU     53.61s WALL (    1029 calls)

     Called by sum_band:
     sum_band:wei :      0.05s CPU      0.05s WALL (       7 calls)
     sum_band:loo :      9.05s CPU      9.24s WALL (       7 calls)
     sum_band:buf :      0.09s CPU      0.09s WALL (    1029 calls)
     sum_band:ini :      1.06s CPU      1.08s WALL (    1029 calls)
     sum_band:cal :      0.76s CPU      0.77s WALL (    1029 calls)
     sum_band:bec :      0.03s CPU      0.03s WALL (    1029 calls)
     addusdens    :      0.35s CPU      0.38s WALL (       7 calls)
     addusd:skk   :      0.01s CPU      0.01s WALL (       7 calls)
     addusd:dgemm :      0.07s CPU      0.09s WALL (       7 calls)
     addusd:qvan2 :      0.15s CPU      0.16s WALL (       7 calls)

     Called by *egterg:
     cdiaghg      :      1.91s CPU      2.01s WALL (    4517 calls)
     cegterg:over :      2.31s CPU      2.45s WALL (    3488 calls)
     cegterg:upda :      1.60s CPU      1.66s WALL (    3488 calls)
     cegterg:last :      2.61s CPU      2.81s WALL (    2281 calls)
     h_psi        :     41.16s CPU     43.46s WALL (    4664 calls)
     s_psi        :      2.22s CPU      2.35s WALL (    4664 calls)
     g_psi        :      0.54s CPU      0.56s WALL (    3488 calls)

     Called by h_psi:
     h_psi:calbec :      2.68s CPU      2.83s WALL (    4664 calls)
     vloc_psi     :     35.52s CPU     37.50s WALL (    4664 calls)
     add_vuspsi   :      2.46s CPU      2.61s WALL (    4664 calls)

     General routines
     calbec       :      4.59s CPU      5.41s WALL (    6428 calls)
     fft          :      1.23s CPU      1.37s WALL (     127 calls)
     ffts         :      0.02s CPU      0.02s WALL (      15 calls)
     fftw         :     33.71s CPU     35.47s WALL (   83348 calls)
     interpolate  :      0.08s CPU      0.09s WALL (       8 calls)

     Parallel routines

     PWSCF        :   1m25.10s CPU   1m31.61s WALL


   This run was terminated on:  17:21:21  23May2022            

=------------------------------------------------------------------------------=
   JOB DONE.
=------------------------------------------------------------------------------=
