
     Program PWSCF v.6.7MaX starts on 23May2022 at 17:50:56 

     This program is part of the open-source Quantum ESPRESSO suite
     for quantum simulation of materials; please cite
         "P. Giannozzi et al., J. Phys.:Condens. Matter 21 395502 (2009);
         "P. Giannozzi et al., J. Phys.:Condens. Matter 29 465901 (2017);
          URL http://www.quantum-espresso.org", 
     in publications or presentations arising from this work. More details at
     http://www.quantum-espresso.org/quote

     Parallel version (MPI), running on     1 processors

     MPI processes distributed on     1 nodes
     Waiting for input...
     Reading input from standard input

     Current dimensions of program PWSCF are:
     Max number of different atomic species (ntypx) = 10
     Max number of k-points (npk) =  40000
     Max angular momentum in pseudopotentials (lmaxx) =  3

     Subspace diagonalization in iterative solution of the eigenvalue problem:
     a serial algorithm will be used


     G-vector sticks info
     --------------------
     sticks:   dense  smooth     PW     G-vecs:    dense   smooth      PW
     Sum         547     265     85                34301    12031    2223



     bravais-lattice index     =            4
     lattice parameter (alat)  =       4.6676  a.u.
     unit-cell volume          =     297.0066 (a.u.)^3
     number of atoms/cell      =            4
     number of atomic types    =            1
     number of electrons       =        16.00
     number of Kohn-Sham states=           12
     kinetic-energy cutoff     =      45.0000  Ry
     charge density cutoff     =     360.0000  Ry
     scf convergence threshold =      1.0E-09
     mixing beta               =       0.7000
     number of iterations used =            8  plain     mixing
     Exchange-correlation= PBE
                           (   1   4   3   4   0   0   0)

     celldm(1)=   4.667624  celldm(2)=   1.000000  celldm(3)=   3.372470
     celldm(4)=   0.000000  celldm(5)=   0.000000  celldm(6)=   0.000000

     crystal axes: (cart. coord. in units of alat)
               a(1) = (   1.000000   0.000000   0.000000 )  
               a(2) = (  -0.500000   0.866025   0.000000 )  
               a(3) = (   0.000000   0.000000   3.372470 )  

     reciprocal axes: (cart. coord. in units 2 pi/alat)
               b(1) = (  1.000000  0.577350 -0.000000 )  
               b(2) = (  0.000000  1.154701  0.000000 )  
               b(3) = (  0.000000 -0.000000  0.296519 )  


     PseudoPot. # 1 for C  read from file:
     /home/max/Desktop/graphite_DFT/Pseudo/C.pbe-n-rrkjus_psl.1.0.0.UPF
     MD5 check sum: 1fdd950c42eb37d8afe3dd2f8d12311e
     Pseudo is Ultrasoft + core correction, Zval =  4.0
     Generated using &quot;atomic&quot; code by A. Dal Corso  v.6.3MaX
     Using radial grid of 1073 points,  4 beta functions with: 
                l(1) =   0
                l(2) =   0
                l(3) =   1
                l(4) =   1
     Q(r) pseudized with 0 coefficients 


     atomic species   valence    mass     pseudopotential
        C              4.00    12.01100     C ( 1.00)

      8 Sym. Ops., with inversion, found ( 4 have fractional translation)


                                    s                        frac. trans.

      isym =  1     identity                                     

 cryst.   s( 1) = (     1          0          0      )
                  (     0          1          0      )
                  (     0          0          1      )

 cart.    s( 1) = (  1.0000000  0.0000000  0.0000000 )
                  (  0.0000000  1.0000000  0.0000000 )
                  (  0.0000000  0.0000000  1.0000000 )


      isym =  2     180 deg rotation - cart. axis [0,0,1]        

 cryst.   s( 2) = (    -1          0          0      )    f =(  0.0000000 )
                  (     0         -1          0      )       (  0.0000000 )
                  (     0          0          1      )       ( -0.5000000 )

 cart.    s( 2) = ( -1.0000000  0.0000000  0.0000000 )    f =(  0.0000000 )
                  (  0.0000000 -1.0000000  0.0000000 )       (  0.0000000 )
                  (  0.0000000  0.0000000  1.0000000 )       ( -1.6862348 )


      isym =  3     180 deg rotation - cart. axis [0,1,0]        

 cryst.   s( 3) = (    -1          0          0      )    f =(  0.0000000 )
                  (     1          1          0      )       (  0.0000000 )
                  (     0          0         -1      )       (  0.5000000 )

 cart.    s( 3) = ( -1.0000000  0.0000000  0.0000000 )    f =(  0.0000000 )
                  (  0.0000000  1.0000000  0.0000000 )       (  0.0000000 )
                  (  0.0000000  0.0000000 -1.0000000 )       (  1.6862348 )


      isym =  4     180 deg rotation - cart. axis [1,0,0]        

 cryst.   s( 4) = (     1          0          0      )
                  (    -1         -1          0      )
                  (     0          0         -1      )

 cart.    s( 4) = (  1.0000000  0.0000000  0.0000000 )
                  (  0.0000000 -1.0000000  0.0000000 )
                  (  0.0000000  0.0000000 -1.0000000 )


      isym =  5     inversion                                    

 cryst.   s( 5) = (    -1          0          0      )
                  (     0         -1          0      )
                  (     0          0         -1      )

 cart.    s( 5) = ( -1.0000000  0.0000000  0.0000000 )
                  (  0.0000000 -1.0000000  0.0000000 )
                  (  0.0000000  0.0000000 -1.0000000 )


      isym =  6     inv. 180 deg rotation - cart. axis [0,0,1]   

 cryst.   s( 6) = (     1          0          0      )    f =(  0.0000000 )
                  (     0          1          0      )       (  0.0000000 )
                  (     0          0         -1      )       (  0.5000000 )

 cart.    s( 6) = (  1.0000000  0.0000000  0.0000000 )    f =(  0.0000000 )
                  (  0.0000000  1.0000000  0.0000000 )       (  0.0000000 )
                  (  0.0000000  0.0000000 -1.0000000 )       (  1.6862348 )


      isym =  7     inv. 180 deg rotation - cart. axis [0,1,0]   

 cryst.   s( 7) = (     1          0          0      )    f =(  0.0000000 )
                  (    -1         -1          0      )       (  0.0000000 )
                  (     0          0          1      )       ( -0.5000000 )

 cart.    s( 7) = (  1.0000000  0.0000000  0.0000000 )    f =(  0.0000000 )
                  (  0.0000000 -1.0000000  0.0000000 )       (  0.0000000 )
                  (  0.0000000  0.0000000  1.0000000 )       ( -1.6862348 )


      isym =  8     inv. 180 deg rotation - cart. axis [1,0,0]   

 cryst.   s( 8) = (    -1          0          0      )
                  (     1          1          0      )
                  (     0          0          1      )

 cart.    s( 8) = ( -1.0000000  0.0000000  0.0000000 )
                  (  0.0000000  1.0000000  0.0000000 )
                  (  0.0000000  0.0000000  1.0000000 )


     point group D_2h (mmm) 
     there are  8 classes
     the character table:

       E     C2    C2'   C2''  i     s_v   s_v'  s_v''
A_g    1.00  1.00  1.00  1.00  1.00  1.00  1.00  1.00
B_1g   1.00  1.00 -1.00 -1.00  1.00  1.00 -1.00 -1.00
B_2g   1.00 -1.00  1.00 -1.00  1.00 -1.00  1.00 -1.00
B_3g   1.00 -1.00 -1.00  1.00  1.00 -1.00 -1.00  1.00
A_u    1.00  1.00  1.00  1.00 -1.00 -1.00 -1.00 -1.00
B_1u   1.00  1.00 -1.00 -1.00 -1.00 -1.00  1.00  1.00
B_2u   1.00 -1.00  1.00 -1.00 -1.00  1.00 -1.00  1.00
B_3u   1.00 -1.00 -1.00  1.00 -1.00  1.00  1.00 -1.00

     the symmetry operations in each class and the name of the first element:

     E        1
          identity                                               
     C2       2
          180 deg rotation - cart. axis [0,0,1]                  
     C2'      4
          180 deg rotation - cart. axis [1,0,0]                  
     C2''     3
          180 deg rotation - cart. axis [0,1,0]                  
     i        5
          inversion                                              
     s_v      6
          inv. 180 deg rotation - cart. axis [0,0,1]             
     s_v'     8
          inv. 180 deg rotation - cart. axis [1,0,0]             
     s_v''    7
          inv. 180 deg rotation - cart. axis [0,1,0]             

   Cartesian axes

     site n.     atom                  positions (alat units)
         1           C   tau(   1) = (   0.0000000   0.0000000   0.8431174  )
         2           C   tau(   2) = (   0.0000000   0.0000000   2.5293522  )
         3           C   tau(   3) = (   0.0000000   0.5772925   0.8431174  )
         4           C   tau(   4) = (   0.5000000   0.2887329   2.5293522  )

   Crystallographic axes

     site n.     atom                  positions (cryst. coord.)
         1           C   tau(   1) = (  0.0000000  0.0000000  0.2500000  )
         2           C   tau(   2) = (  0.0000000  0.0000000  0.7500000  )
         3           C   tau(   3) = (  0.3333000  0.6666000  0.2500000  )
         4           C   tau(   4) = (  0.6667000  0.3334000  0.7500000  )

     number of k points=   129  Methfessel-Paxton smearing, width (Ry)=  0.1000
                       cart. coord. in units 2pi/alat
        k(    1) = (   0.0000000   0.0000000   0.0000000), wk =   0.0034722
        k(    2) = (   0.0000000   0.0000000   0.0741297), wk =   0.0069444
        k(    3) = (   0.0000000   0.0000000  -0.1482593), wk =   0.0034722
        k(    4) = (   0.0000000   0.0962250   0.0000000), wk =   0.0069444
        k(    5) = (   0.0000000   0.0962250   0.0741297), wk =   0.0138889
        k(    6) = (   0.0000000   0.0962250  -0.1482593), wk =   0.0069444
        k(    7) = (   0.0000000   0.1924501   0.0000000), wk =   0.0069444
        k(    8) = (   0.0000000   0.1924501   0.0741297), wk =   0.0138889
        k(    9) = (   0.0000000   0.1924501  -0.1482593), wk =   0.0069444
        k(   10) = (   0.0000000   0.2886751   0.0000000), wk =   0.0069444
        k(   11) = (   0.0000000   0.2886751   0.0741297), wk =   0.0138889
        k(   12) = (   0.0000000   0.2886751  -0.1482593), wk =   0.0069444
        k(   13) = (   0.0000000   0.3849002   0.0000000), wk =   0.0069444
        k(   14) = (   0.0000000   0.3849002   0.0741297), wk =   0.0138889
        k(   15) = (   0.0000000   0.3849002  -0.1482593), wk =   0.0069444
        k(   16) = (   0.0000000   0.4811252   0.0000000), wk =   0.0069444
        k(   17) = (   0.0000000   0.4811252   0.0741297), wk =   0.0138889
        k(   18) = (   0.0000000   0.4811252  -0.1482593), wk =   0.0069444
        k(   19) = (   0.0000000  -0.5773503   0.0000000), wk =   0.0034722
        k(   20) = (   0.0000000  -0.5773503   0.0741297), wk =   0.0069444
        k(   21) = (   0.0000000  -0.5773503  -0.1482593), wk =   0.0034722
        k(   22) = (   0.0833333   0.1443376   0.0000000), wk =   0.0138889
        k(   23) = (   0.0833333   0.1443376   0.0741297), wk =   0.0277778
        k(   24) = (   0.0833333   0.1443376  -0.1482593), wk =   0.0138889
        k(   25) = (   0.0833333   0.2405626   0.0000000), wk =   0.0138889
        k(   26) = (   0.0833333   0.2405626   0.0741297), wk =   0.0277778
        k(   27) = (   0.0833333   0.2405626  -0.1482593), wk =   0.0138889
        k(   28) = (   0.0833333   0.3367877   0.0000000), wk =   0.0138889
        k(   29) = (   0.0833333   0.3367877   0.0741297), wk =   0.0277778
        k(   30) = (   0.0833333   0.3367877  -0.1482593), wk =   0.0138889
        k(   31) = (   0.0833333   0.4330127   0.0000000), wk =   0.0138889
        k(   32) = (   0.0833333   0.4330127   0.0741297), wk =   0.0277778
        k(   33) = (   0.0833333   0.4330127  -0.1482593), wk =   0.0138889
        k(   34) = (   0.0833333   0.5292377   0.0000000), wk =   0.0138889
        k(   35) = (   0.0833333   0.5292377   0.0741297), wk =   0.0277778
        k(   36) = (   0.0833333   0.5292377  -0.1482593), wk =   0.0138889
        k(   37) = (   0.1666667   0.2886751   0.0000000), wk =   0.0138889
        k(   38) = (   0.1666667   0.2886751   0.0741297), wk =   0.0277778
        k(   39) = (   0.1666667   0.2886751  -0.1482593), wk =   0.0138889
        k(   40) = (   0.1666667   0.3849002   0.0000000), wk =   0.0138889
        k(   41) = (   0.1666667   0.3849002   0.0741297), wk =   0.0277778
        k(   42) = (   0.1666667   0.3849002  -0.1482593), wk =   0.0138889
        k(   43) = (   0.1666667   0.4811252   0.0000000), wk =   0.0138889
        k(   44) = (   0.1666667   0.4811252   0.0741297), wk =   0.0277778
        k(   45) = (   0.1666667   0.4811252  -0.1482593), wk =   0.0138889
        k(   46) = (   0.1666667   0.5773503   0.0000000), wk =   0.0069444
        k(   47) = (   0.1666667   0.5773503   0.0741297), wk =   0.0138889
        k(   48) = (   0.1666667   0.5773503  -0.1482593), wk =   0.0069444
        k(   49) = (   0.2500000   0.4330127   0.0000000), wk =   0.0138889
        k(   50) = (   0.2500000   0.4330127   0.0741297), wk =   0.0277778
        k(   51) = (   0.2500000   0.4330127  -0.1482593), wk =   0.0138889
        k(   52) = (   0.2500000   0.5292377   0.0000000), wk =   0.0138889
        k(   53) = (   0.2500000   0.5292377   0.0741297), wk =   0.0277778
        k(   54) = (   0.2500000   0.5292377  -0.1482593), wk =   0.0138889
        k(   55) = (   0.3333333   0.5773503   0.0000000), wk =   0.0069444
        k(   56) = (   0.3333333   0.5773503   0.0741297), wk =   0.0138889
        k(   57) = (   0.3333333   0.5773503  -0.1482593), wk =   0.0069444
        k(   58) = (  -0.0833333  -0.0481125   0.0000000), wk =   0.0138889
        k(   59) = (  -0.0833333  -0.0481125  -0.0741297), wk =   0.0277778
        k(   60) = (  -0.0833333  -0.0481125   0.1482593), wk =   0.0138889
        k(   61) = (  -0.1666667  -0.0962250   0.0000000), wk =   0.0138889
        k(   62) = (  -0.1666667  -0.0962250  -0.0741297), wk =   0.0277778
        k(   63) = (  -0.1666667  -0.0962250   0.1482593), wk =   0.0138889
        k(   64) = (  -0.2500000  -0.1443376   0.0000000), wk =   0.0138889
        k(   65) = (  -0.2500000  -0.1443376  -0.0741297), wk =   0.0277778
        k(   66) = (  -0.2500000  -0.1443376   0.1482593), wk =   0.0138889
        k(   67) = (  -0.3333333  -0.1924501   0.0000000), wk =   0.0138889
        k(   68) = (  -0.3333333  -0.1924501  -0.0741297), wk =   0.0277778
        k(   69) = (  -0.3333333  -0.1924501   0.1482593), wk =   0.0138889
        k(   70) = (  -0.4166667  -0.2405626   0.0000000), wk =   0.0138889
        k(   71) = (  -0.4166667  -0.2405626  -0.0741297), wk =   0.0277778
        k(   72) = (  -0.4166667  -0.2405626   0.1482593), wk =   0.0138889
        k(   73) = (   0.5000000   0.2886751   0.0000000), wk =   0.0069444
        k(   74) = (   0.5000000   0.2886751  -0.0741297), wk =   0.0138889
        k(   75) = (   0.5000000   0.2886751   0.1482593), wk =   0.0069444
        k(   76) = (   0.1666667   0.0000000   0.0000000), wk =   0.0069444
        k(   77) = (   0.1666667   0.0000000  -0.0741297), wk =   0.0138889
        k(   78) = (   0.1666667   0.0000000   0.1482593), wk =   0.0069444
        k(   79) = (  -0.1666667  -0.1924501   0.0000000), wk =   0.0138889
        k(   80) = (   0.2500000  -0.0481125   0.0000000), wk =   0.0138889
        k(   81) = (  -0.1666667  -0.1924501  -0.0741297), wk =   0.0277778
        k(   82) = (   0.2500000  -0.0481125  -0.0741297), wk =   0.0277778
        k(   83) = (  -0.1666667  -0.1924501   0.1482593), wk =   0.0138889
        k(   84) = (   0.2500000  -0.0481125   0.1482593), wk =   0.0138889
        k(   85) = (  -0.2500000  -0.2405626   0.0000000), wk =   0.0138889
        k(   86) = (   0.3333333  -0.0962250   0.0000000), wk =   0.0138889
        k(   87) = (  -0.2500000  -0.2405626  -0.0741297), wk =   0.0277778
        k(   88) = (   0.3333333  -0.0962250  -0.0741297), wk =   0.0277778
        k(   89) = (  -0.2500000  -0.2405626   0.1482593), wk =   0.0138889
        k(   90) = (   0.3333333  -0.0962250   0.1482593), wk =   0.0138889
        k(   91) = (  -0.3333333  -0.2886751   0.0000000), wk =   0.0138889
        k(   92) = (   0.4166667  -0.1443376   0.0000000), wk =   0.0138889
        k(   93) = (  -0.3333333  -0.2886751  -0.0741297), wk =   0.0277778
        k(   94) = (   0.4166667  -0.1443376  -0.0741297), wk =   0.0277778
        k(   95) = (  -0.3333333  -0.2886751   0.1482593), wk =   0.0138889
        k(   96) = (   0.4166667  -0.1443376   0.1482593), wk =   0.0138889
        k(   97) = (  -0.4166667  -0.3367877   0.0000000), wk =   0.0138889
        k(   98) = (   0.5000000  -0.1924501   0.0000000), wk =   0.0138889
        k(   99) = (  -0.4166667  -0.3367877  -0.0741297), wk =   0.0277778
        k(  100) = (   0.5000000  -0.1924501  -0.0741297), wk =   0.0277778
        k(  101) = (  -0.4166667  -0.3367877   0.1482593), wk =   0.0138889
        k(  102) = (   0.5000000  -0.1924501   0.1482593), wk =   0.0138889
        k(  103) = (   0.3333333   0.0000000   0.0000000), wk =   0.0069444
        k(  104) = (   0.3333333   0.0000000  -0.0741297), wk =   0.0138889
        k(  105) = (   0.3333333   0.0000000   0.1482593), wk =   0.0069444
        k(  106) = (  -0.2500000  -0.3367877   0.0000000), wk =   0.0138889
        k(  107) = (   0.4166667  -0.0481125   0.0000000), wk =   0.0138889
        k(  108) = (  -0.2500000  -0.3367877  -0.0741297), wk =   0.0277778
        k(  109) = (   0.4166667  -0.0481125  -0.0741297), wk =   0.0277778
        k(  110) = (  -0.2500000  -0.3367877   0.1482593), wk =   0.0138889
        k(  111) = (   0.4166667  -0.0481125   0.1482593), wk =   0.0138889
        k(  112) = (  -0.3333333  -0.3849002   0.0000000), wk =   0.0138889
        k(  113) = (   0.5000000  -0.0962250   0.0000000), wk =   0.0138889
        k(  114) = (  -0.3333333  -0.3849002  -0.0741297), wk =   0.0277778
        k(  115) = (   0.5000000  -0.0962250  -0.0741297), wk =   0.0277778
        k(  116) = (  -0.3333333  -0.3849002   0.1482593), wk =   0.0138889
        k(  117) = (   0.5000000  -0.0962250   0.1482593), wk =   0.0138889
        k(  118) = (  -0.4166667  -0.4330127   0.0000000), wk =   0.0138889
        k(  119) = (  -0.4166667  -0.4330127  -0.0741297), wk =   0.0277778
        k(  120) = (  -0.4166667  -0.4330127   0.1482593), wk =   0.0138889
        k(  121) = (   0.5000000  -0.0000000   0.0000000), wk =   0.0069444
        k(  122) = (   0.5000000  -0.0000000  -0.0741297), wk =   0.0138889
        k(  123) = (   0.5000000  -0.0000000   0.1482593), wk =   0.0069444
        k(  124) = (  -0.3333333  -0.4811252   0.0000000), wk =   0.0138889
        k(  125) = (   0.5833333  -0.0481125   0.0000000), wk =   0.0138889
        k(  126) = (  -0.3333333  -0.4811252  -0.0741297), wk =   0.0277778
        k(  127) = (   0.5833333  -0.0481125  -0.0741297), wk =   0.0277778
        k(  128) = (  -0.3333333  -0.4811252   0.1482593), wk =   0.0138889
        k(  129) = (   0.5833333  -0.0481125   0.1482593), wk =   0.0138889

                       cryst. coord.
        k(    1) = (   0.0000000   0.0000000   0.0000000), wk =   0.0034722
        k(    2) = (   0.0000000   0.0000000   0.2500000), wk =   0.0069444
        k(    3) = (   0.0000000   0.0000000  -0.5000000), wk =   0.0034722
        k(    4) = (   0.0000000   0.0833333   0.0000000), wk =   0.0069444
        k(    5) = (   0.0000000   0.0833333   0.2500000), wk =   0.0138889
        k(    6) = (   0.0000000   0.0833333  -0.5000000), wk =   0.0069444
        k(    7) = (   0.0000000   0.1666667   0.0000000), wk =   0.0069444
        k(    8) = (   0.0000000   0.1666667   0.2500000), wk =   0.0138889
        k(    9) = (   0.0000000   0.1666667  -0.5000000), wk =   0.0069444
        k(   10) = (   0.0000000   0.2500000   0.0000000), wk =   0.0069444
        k(   11) = (   0.0000000   0.2500000   0.2500000), wk =   0.0138889
        k(   12) = (   0.0000000   0.2500000  -0.5000000), wk =   0.0069444
        k(   13) = (   0.0000000   0.3333333   0.0000000), wk =   0.0069444
        k(   14) = (   0.0000000   0.3333333   0.2500000), wk =   0.0138889
        k(   15) = (   0.0000000   0.3333333  -0.5000000), wk =   0.0069444
        k(   16) = (   0.0000000   0.4166667   0.0000000), wk =   0.0069444
        k(   17) = (   0.0000000   0.4166667   0.2500000), wk =   0.0138889
        k(   18) = (   0.0000000   0.4166667  -0.5000000), wk =   0.0069444
        k(   19) = (   0.0000000  -0.5000000   0.0000000), wk =   0.0034722
        k(   20) = (   0.0000000  -0.5000000   0.2500000), wk =   0.0069444
        k(   21) = (   0.0000000  -0.5000000  -0.5000000), wk =   0.0034722
        k(   22) = (   0.0833333   0.0833333   0.0000000), wk =   0.0138889
        k(   23) = (   0.0833333   0.0833333   0.2500000), wk =   0.0277778
        k(   24) = (   0.0833333   0.0833333  -0.5000000), wk =   0.0138889
        k(   25) = (   0.0833333   0.1666667   0.0000000), wk =   0.0138889
        k(   26) = (   0.0833333   0.1666667   0.2500000), wk =   0.0277778
        k(   27) = (   0.0833333   0.1666667  -0.5000000), wk =   0.0138889
        k(   28) = (   0.0833333   0.2500000   0.0000000), wk =   0.0138889
        k(   29) = (   0.0833333   0.2500000   0.2500000), wk =   0.0277778
        k(   30) = (   0.0833333   0.2500000  -0.5000000), wk =   0.0138889
        k(   31) = (   0.0833333   0.3333333   0.0000000), wk =   0.0138889
        k(   32) = (   0.0833333   0.3333333   0.2500000), wk =   0.0277778
        k(   33) = (   0.0833333   0.3333333  -0.5000000), wk =   0.0138889
        k(   34) = (   0.0833333   0.4166667   0.0000000), wk =   0.0138889
        k(   35) = (   0.0833333   0.4166667   0.2500000), wk =   0.0277778
        k(   36) = (   0.0833333   0.4166667  -0.5000000), wk =   0.0138889
        k(   37) = (   0.1666667   0.1666667   0.0000000), wk =   0.0138889
        k(   38) = (   0.1666667   0.1666667   0.2500000), wk =   0.0277778
        k(   39) = (   0.1666667   0.1666667  -0.5000000), wk =   0.0138889
        k(   40) = (   0.1666667   0.2500000   0.0000000), wk =   0.0138889
        k(   41) = (   0.1666667   0.2500000   0.2500000), wk =   0.0277778
        k(   42) = (   0.1666667   0.2500000  -0.5000000), wk =   0.0138889
        k(   43) = (   0.1666667   0.3333333   0.0000000), wk =   0.0138889
        k(   44) = (   0.1666667   0.3333333   0.2500000), wk =   0.0277778
        k(   45) = (   0.1666667   0.3333333  -0.5000000), wk =   0.0138889
        k(   46) = (   0.1666667   0.4166667   0.0000000), wk =   0.0069444
        k(   47) = (   0.1666667   0.4166667   0.2500000), wk =   0.0138889
        k(   48) = (   0.1666667   0.4166667  -0.5000000), wk =   0.0069444
        k(   49) = (   0.2500000   0.2500000   0.0000000), wk =   0.0138889
        k(   50) = (   0.2500000   0.2500000   0.2500000), wk =   0.0277778
        k(   51) = (   0.2500000   0.2500000  -0.5000000), wk =   0.0138889
        k(   52) = (   0.2500000   0.3333333   0.0000000), wk =   0.0138889
        k(   53) = (   0.2500000   0.3333333   0.2500000), wk =   0.0277778
        k(   54) = (   0.2500000   0.3333333  -0.5000000), wk =   0.0138889
        k(   55) = (   0.3333333   0.3333333   0.0000000), wk =   0.0069444
        k(   56) = (   0.3333333   0.3333333   0.2500000), wk =   0.0138889
        k(   57) = (   0.3333333   0.3333333  -0.5000000), wk =   0.0069444
        k(   58) = (  -0.0833333  -0.0000000   0.0000000), wk =   0.0138889
        k(   59) = (  -0.0833333  -0.0000000  -0.2500000), wk =   0.0277778
        k(   60) = (  -0.0833333  -0.0000000   0.5000000), wk =   0.0138889
        k(   61) = (  -0.1666667  -0.0000000   0.0000000), wk =   0.0138889
        k(   62) = (  -0.1666667  -0.0000000  -0.2500000), wk =   0.0277778
        k(   63) = (  -0.1666667  -0.0000000   0.5000000), wk =   0.0138889
        k(   64) = (  -0.2500000   0.0000000   0.0000000), wk =   0.0138889
        k(   65) = (  -0.2500000   0.0000000  -0.2500000), wk =   0.0277778
        k(   66) = (  -0.2500000   0.0000000   0.5000000), wk =   0.0138889
        k(   67) = (  -0.3333333  -0.0000000   0.0000000), wk =   0.0138889
        k(   68) = (  -0.3333333  -0.0000000  -0.2500000), wk =   0.0277778
        k(   69) = (  -0.3333333  -0.0000000   0.5000000), wk =   0.0138889
        k(   70) = (  -0.4166667   0.0000000   0.0000000), wk =   0.0138889
        k(   71) = (  -0.4166667   0.0000000  -0.2500000), wk =   0.0277778
        k(   72) = (  -0.4166667   0.0000000   0.5000000), wk =   0.0138889
        k(   73) = (   0.5000000   0.0000000   0.0000000), wk =   0.0069444
        k(   74) = (   0.5000000   0.0000000  -0.2500000), wk =   0.0138889
        k(   75) = (   0.5000000   0.0000000   0.5000000), wk =   0.0069444
        k(   76) = (   0.1666667  -0.0833333   0.0000000), wk =   0.0069444
        k(   77) = (   0.1666667  -0.0833333  -0.2500000), wk =   0.0138889
        k(   78) = (   0.1666667  -0.0833333   0.5000000), wk =   0.0069444
        k(   79) = (  -0.1666667  -0.0833333   0.0000000), wk =   0.0138889
        k(   80) = (   0.2500000  -0.1666667   0.0000000), wk =   0.0138889
        k(   81) = (  -0.1666667  -0.0833333  -0.2500000), wk =   0.0277778
        k(   82) = (   0.2500000  -0.1666667  -0.2500000), wk =   0.0277778
        k(   83) = (  -0.1666667  -0.0833333   0.5000000), wk =   0.0138889
        k(   84) = (   0.2500000  -0.1666667   0.5000000), wk =   0.0138889
        k(   85) = (  -0.2500000  -0.0833333   0.0000000), wk =   0.0138889
        k(   86) = (   0.3333333  -0.2500000   0.0000000), wk =   0.0138889
        k(   87) = (  -0.2500000  -0.0833333  -0.2500000), wk =   0.0277778
        k(   88) = (   0.3333333  -0.2500000  -0.2500000), wk =   0.0277778
        k(   89) = (  -0.2500000  -0.0833333   0.5000000), wk =   0.0138889
        k(   90) = (   0.3333333  -0.2500000   0.5000000), wk =   0.0138889
        k(   91) = (  -0.3333333  -0.0833333   0.0000000), wk =   0.0138889
        k(   92) = (   0.4166667  -0.3333333   0.0000000), wk =   0.0138889
        k(   93) = (  -0.3333333  -0.0833333  -0.2500000), wk =   0.0277778
        k(   94) = (   0.4166667  -0.3333333  -0.2500000), wk =   0.0277778
        k(   95) = (  -0.3333333  -0.0833333   0.5000000), wk =   0.0138889
        k(   96) = (   0.4166667  -0.3333333   0.5000000), wk =   0.0138889
        k(   97) = (  -0.4166667  -0.0833333   0.0000000), wk =   0.0138889
        k(   98) = (   0.5000000  -0.4166667   0.0000000), wk =   0.0138889
        k(   99) = (  -0.4166667  -0.0833333  -0.2500000), wk =   0.0277778
        k(  100) = (   0.5000000  -0.4166667  -0.2500000), wk =   0.0277778
        k(  101) = (  -0.4166667  -0.0833333   0.5000000), wk =   0.0138889
        k(  102) = (   0.5000000  -0.4166667   0.5000000), wk =   0.0138889
        k(  103) = (   0.3333333  -0.1666667   0.0000000), wk =   0.0069444
        k(  104) = (   0.3333333  -0.1666667  -0.2500000), wk =   0.0138889
        k(  105) = (   0.3333333  -0.1666667   0.5000000), wk =   0.0069444
        k(  106) = (  -0.2500000  -0.1666667   0.0000000), wk =   0.0138889
        k(  107) = (   0.4166667  -0.2500000   0.0000000), wk =   0.0138889
        k(  108) = (  -0.2500000  -0.1666667  -0.2500000), wk =   0.0277778
        k(  109) = (   0.4166667  -0.2500000  -0.2500000), wk =   0.0277778
        k(  110) = (  -0.2500000  -0.1666667   0.5000000), wk =   0.0138889
        k(  111) = (   0.4166667  -0.2500000   0.5000000), wk =   0.0138889
        k(  112) = (  -0.3333333  -0.1666667   0.0000000), wk =   0.0138889
        k(  113) = (   0.5000000  -0.3333333   0.0000000), wk =   0.0138889
        k(  114) = (  -0.3333333  -0.1666667  -0.2500000), wk =   0.0277778
        k(  115) = (   0.5000000  -0.3333333  -0.2500000), wk =   0.0277778
        k(  116) = (  -0.3333333  -0.1666667   0.5000000), wk =   0.0138889
        k(  117) = (   0.5000000  -0.3333333   0.5000000), wk =   0.0138889
        k(  118) = (  -0.4166667  -0.1666667   0.0000000), wk =   0.0138889
        k(  119) = (  -0.4166667  -0.1666667  -0.2500000), wk =   0.0277778
        k(  120) = (  -0.4166667  -0.1666667   0.5000000), wk =   0.0138889
        k(  121) = (   0.5000000  -0.2500000   0.0000000), wk =   0.0069444
        k(  122) = (   0.5000000  -0.2500000  -0.2500000), wk =   0.0138889
        k(  123) = (   0.5000000  -0.2500000   0.5000000), wk =   0.0069444
        k(  124) = (  -0.3333333  -0.2500000   0.0000000), wk =   0.0138889
        k(  125) = (   0.5833333  -0.3333333   0.0000000), wk =   0.0138889
        k(  126) = (  -0.3333333  -0.2500000  -0.2500000), wk =   0.0277778
        k(  127) = (   0.5833333  -0.3333333  -0.2500000), wk =   0.0277778
        k(  128) = (  -0.3333333  -0.2500000   0.5000000), wk =   0.0138889
        k(  129) = (   0.5833333  -0.3333333   0.5000000), wk =   0.0138889

     Dense  grid:    34301 G-vectors     FFT dimensions: (  30,  30,  96)

     Smooth grid:    12031 G-vectors     FFT dimensions: (  20,  20,  72)

     Dynamical RAM for                 wfc:       0.28 MB

     Dynamical RAM for     wfc (w. buffer):      36.04 MB

     Dynamical RAM for           str. fact:       0.52 MB

     Dynamical RAM for           local pot:       0.00 MB

     Dynamical RAM for          nlocal pot:       0.74 MB

     Dynamical RAM for                qrad:       0.44 MB

     Dynamical RAM for          rho,v,vnew:       3.55 MB

     Dynamical RAM for               rhoin:       1.18 MB

     Dynamical RAM for            rho*nmix:       8.37 MB

     Dynamical RAM for           G-vectors:       2.05 MB

     Dynamical RAM for          h,s,v(r/c):       0.03 MB

     Dynamical RAM for          <psi|beta>:       0.01 MB

     Dynamical RAM for                 psi:       0.55 MB

     Dynamical RAM for                hpsi:       0.55 MB

     Dynamical RAM for                spsi:       0.55 MB

     Dynamical RAM for      wfcinit/wfcrot:       0.75 MB

     Dynamical RAM for           addusdens:      24.60 MB

     Dynamical RAM for          addusforce:      28.00 MB

     Dynamical RAM for         addusstress:      26.17 MB

     Estimated static dynamical RAM per process >      57.24 MB

     Estimated max dynamical RAM per process >      85.24 MB

     Check: negative core charge=   -0.000010

     Initial potential from superposition of free atoms

     starting charge   15.99983, renormalised to   16.00000
     Starting wfcs are   16 randomized atomic wfcs

     total cpu time spent up to now is        9.8 secs

     Self-consistent Calculation

     iteration #  1     ecut=    45.00 Ry     beta= 0.70
     Davidson diagonalization with overlap
     ethr =  1.00E-02,  avg # of iterations =  2.8

     total cpu time spent up to now is       22.9 secs

     total energy              =     -49.65993200 Ry
     estimated scf accuracy    <       0.37702439 Ry

     iteration #  2     ecut=    45.00 Ry     beta= 0.70
     Davidson diagonalization with overlap
     ethr =  2.36E-03,  avg # of iterations =  2.4

     total cpu time spent up to now is       35.0 secs

     total energy              =     -49.71093238 Ry
     estimated scf accuracy    <       0.00436420 Ry

     iteration #  3     ecut=    45.00 Ry     beta= 0.70
     Davidson diagonalization with overlap
     c_bands:  1 eigenvalues not converged
     ethr =  2.73E-05,  avg # of iterations =  7.0

     total cpu time spent up to now is       48.8 secs

     total energy              =     -49.71129567 Ry
     estimated scf accuracy    <       0.00031079 Ry

     iteration #  4     ecut=    45.00 Ry     beta= 0.70
     Davidson diagonalization with overlap
     ethr =  1.94E-06,  avg # of iterations =  4.0

     total cpu time spent up to now is       56.3 secs

     total energy              =     -49.71131317 Ry
     estimated scf accuracy    <       0.00000199 Ry

     iteration #  5     ecut=    45.00 Ry     beta= 0.70
     Davidson diagonalization with overlap
     ethr =  1.24E-08,  avg # of iterations =  2.9

     total cpu time spent up to now is       64.4 secs

     total energy              =     -49.71131426 Ry
     estimated scf accuracy    <       0.00000006 Ry

     iteration #  6     ecut=    45.00 Ry     beta= 0.70
     Davidson diagonalization with overlap
     ethr =  3.77E-10,  avg # of iterations =  2.2

     total cpu time spent up to now is       78.1 secs

     total energy              =     -49.71131427 Ry
     estimated scf accuracy    <          9.0E-09 Ry

     iteration #  7     ecut=    45.00 Ry     beta= 0.70
     Davidson diagonalization with overlap
     ethr =  5.61E-11,  avg # of iterations =  1.8

     total cpu time spent up to now is       86.0 secs

     End of self-consistent calculation

          k = 0.0000 0.0000 0.0000 (  1497 PWs)   bands (ev):

   -14.6986 -14.6533  -3.0610  -2.4969   1.7305   1.7320   1.7348   1.7362
     7.9717  13.0946  13.1002  13.1012

     occupation numbers 
     1.0000   1.0000   1.0000   1.0000   1.0026   1.0026   1.0027   1.0027
    -0.0029  -0.0000  -0.0000  -0.0000

          k = 0.0000 0.0000 0.0741 (  1480 PWs)   bands (ev):

   -14.6920 -14.6600  -2.9847  -2.5866   1.7307   1.7318   1.7350   1.7361
     8.3343  10.6654  13.0963  13.1008

     occupation numbers 
     1.0000   1.0000   1.0000   1.0000   1.0026   1.0026   1.0027   1.0027
    -0.0009  -0.0000  -0.0000  -0.0000

          k = 0.0000 0.0000-0.1483 (  1450 PWs)   bands (ev):

   -14.6760 -14.6760  -2.7923  -2.7923   1.7313   1.7313   1.7356   1.7356
     9.3287   9.3287  13.0979  13.0979

     occupation numbers 
     1.0000   1.0000   1.0000   1.0000   1.0026   1.0026   1.0027   1.0027
    -0.0000  -0.0000  -0.0000  -0.0000

          k = 0.0000 0.0962 0.0000 (  1493 PWs)   bands (ev):

   -14.5351 -14.4904  -2.8635  -2.3043   1.0815   1.0846   1.3974   1.3999
     8.1841  11.6860  13.1523  13.1772

     occupation numbers 
     1.0000   1.0000   1.0000   1.0000   1.0003   1.0003   1.0009   1.0009
    -0.0015  -0.0000  -0.0000  -0.0000

          k = 0.0000 0.0962 0.0741 (  1489 PWs)   bands (ev):

   -14.5286 -14.4970  -2.7879  -2.3932   1.0819   1.0841   1.3978   1.3995
     8.5448  10.8636  13.1631  13.1756

     occupation numbers 
     1.0000   1.0000   1.0000   1.0000   1.0003   1.0003   1.0009   1.0009
    -0.0004  -0.0000  -0.0000  -0.0000

          k = 0.0000 0.0962-0.1483 (  1486 PWs)   bands (ev):

   -14.5128 -14.5128  -2.5971  -2.5971   1.0830   1.0830   1.3987   1.3987
     9.5341   9.5341  13.1711  13.1711

     occupation numbers 
     1.0000   1.0000   1.0000   1.0000   1.0003   1.0003   1.0009   1.0009
    -0.0000  -0.0000  -0.0000  -0.0000

          k = 0.0000 0.1925 0.0000 (  1503 PWs)   bands (ev):

   -14.0463 -14.0034  -2.2761  -1.7319  -0.5518  -0.5451   0.6076   0.6113
     8.8220  12.2534  13.0768  13.1311

     occupation numbers 
     1.0000   1.0000   1.0000   1.0000   1.0000   1.0000   1.0000   1.0000
    -0.0002  -0.0000  -0.0000  -0.0000

          k = 0.0000 0.1925 0.0741 (  1496 PWs)   bands (ev):

   -14.0401 -14.0097  -2.2023  -1.8183  -0.5509  -0.5461   0.6081   0.6107
     9.1764  11.4488  13.1025  13.1283

     occupation numbers 
     1.0000   1.0000   1.0000   1.0000   1.0000   1.0000   1.0000   1.0000
    -0.0000  -0.0000  -0.0000  -0.0000

          k = 0.0000 0.1925-0.1483 (  1490 PWs)   bands (ev):

   -14.0249 -14.0249  -2.0165  -2.0165  -0.5485  -0.5485   0.6095   0.6095
    10.1476  10.1476  13.1187  13.1188

     occupation numbers 
     1.0000   1.0000   1.0000   1.0000   1.0000   1.0000   1.0000   1.0000
    -0.0000  -0.0000  -0.0000  -0.0000

          k = 0.0000 0.2887 0.0000 (  1497 PWs)   bands (ev):

   -13.2381 -13.1979  -2.6446  -2.6331  -1.3168  -0.8005  -0.2695  -0.2651
     9.8824  11.9198  12.0391  12.7893

     occupation numbers 
     1.0000   1.0000   1.0000   1.0000   1.0000   1.0000   1.0000   1.0000
    -0.0000  -0.0000  -0.0000  -0.0000

          k = 0.0000 0.2887 0.0741 (  1502 PWs)   bands (ev):

   -13.2323 -13.2039  -2.6429  -2.6348  -1.2465  -0.8820  -0.2689  -0.2657
    10.2194  11.8858  12.0079  12.5416

     occupation numbers 
     1.0000   1.0000   1.0000   1.0000   1.0000   1.0000   1.0000   1.0000
    -0.0000  -0.0000  -0.0000  -0.0000

          k = 0.0000 0.2887-0.1483 (  1508 PWs)   bands (ev):

   -13.2182 -13.2182  -2.6389  -2.6389  -1.0698  -1.0698  -0.2673  -0.2673
    11.1186  11.1186  12.0702  12.0702

     occupation numbers 
     1.0000   1.0000   1.0000   1.0000   1.0000   1.0000   1.0000   1.0000
    -0.0000  -0.0000  -0.0000  -0.0000

          k = 0.0000 0.3849 0.0000 (  1504 PWs)   bands (ev):

   -12.1227 -12.0863  -4.8416  -4.8251  -1.0009  -0.9960  -0.0321   0.4358
     9.5920   9.8079  11.3488  12.4557

     occupation numbers 
     1.0000   1.0000   1.0000   1.0000   1.0000   1.0000   1.0000   1.0000
    -0.0000  -0.0000  -0.0000  -0.0000

          k = 0.0000 0.3849 0.0741 (  1509 PWs)   bands (ev):

   -12.1175 -12.0917  -4.8392  -4.8276  -1.0001  -0.9967   0.0321   0.3625
     9.6145   9.7684  11.6831  12.4555

     occupation numbers 
     1.0000   1.0000   1.0000   1.0000   1.0000   1.0000   1.0000   1.0000
    -0.0000  -0.0000  -0.0000  -0.0000

          k = 0.0000 0.3849-0.1483 (  1502 PWs)   bands (ev):

   -12.1046 -12.1046  -4.8334  -4.8334  -0.9984  -0.9984   0.1928   0.1928
     9.6839   9.6839  12.3721  12.3721

     occupation numbers 
     1.0000   1.0000   1.0000   1.0000   1.0000   1.0000   1.0000   1.0000
    -0.0000  -0.0000  -0.0000  -0.0000

          k = 0.0000 0.4811 0.0000 (  1508 PWs)   bands (ev):

   -10.7314 -10.6998  -6.9350  -6.9137  -1.4725  -1.4674   1.4295   1.7972
     7.4422   7.7144  12.2053  12.2624

     occupation numbers 
     1.0000   1.0000   1.0000   1.0000   1.0000   1.0000   1.0010   1.0032
    -0.0112  -0.0059  -0.0000  -0.0000

          k = 0.0000 0.4811 0.0741 (  1510 PWs)   bands (ev):

   -10.7268 -10.7044  -6.9319  -6.9169  -1.4718  -1.4681   1.4811   1.7410
     7.4754   7.6679  12.2151  12.2558

     occupation numbers 
     1.0000   1.0000   1.0000   1.0000   1.0000   1.0000   1.0012   1.0027
    -0.0104  -0.0066  -0.0000  -0.0000

          k = 0.0000 0.4811-0.1483 (  1500 PWs)   bands (ev):

   -10.7156 -10.7156  -6.9243  -6.9243  -1.4699  -1.4699   1.6088   1.6088
     7.5651   7.5651  12.2367  12.2367

     occupation numbers 
     1.0000   1.0000   1.0000   1.0000   1.0000   1.0000   1.0018   1.0018
    -0.0085  -0.0085  -0.0000  -0.0000

          k = 0.0000-0.5774 0.0000 (  1508 PWs)   bands (ev):

    -9.4698  -9.4549  -8.4254  -8.4134  -1.6345  -1.6292   2.3594   2.5323
     6.3755   6.6132  12.1230  12.1890

     occupation numbers 
     1.0000   1.0000   1.0000   1.0000   1.0000   1.0000   1.0128   1.0178
    -0.0330  -0.0350  -0.0000  -0.0000

          k = 0.0000-0.5774 0.0741 (  1520 PWs)   bands (ev):

    -9.4676  -9.4571  -8.4237  -8.4153  -1.6337  -1.6300   2.3862   2.5087
     6.4002   6.5682  12.1326  12.1793

     occupation numbers 
     1.0000   1.0000   1.0000   1.0000   1.0000   1.0000   1.0135   1.0171
    -0.0337  -0.0354  -0.0000  -0.0000

          k = 0.0000-0.5774-0.1483 (  1520 PWs)   bands (ev):

    -9.4623  -9.4623  -8.4196  -8.4196  -1.6318  -1.6318   2.4490   2.4490
     6.4742   6.4742  12.1559  12.1559

     occupation numbers 
     1.0000   1.0000   1.0000   1.0000   1.0000   1.0000   1.0153   1.0153
    -0.0351  -0.0351  -0.0000  -0.0000

          k = 0.0833 0.1443 0.0000 (  1505 PWs)   bands (ev):

   -14.2089 -14.1654  -2.4710  -1.9217   0.0517   0.0548   0.7228   0.7249
     8.6098  12.0705  13.4303  13.4807

     occupation numbers 
     1.0000   1.0000   1.0000   1.0000   1.0000   1.0000   1.0001   1.0001
    -0.0004  -0.0000  -0.0000  -0.0000

          k = 0.0833 0.1443 0.0741 (  1502 PWs)   bands (ev):

   -14.2026 -14.1718  -2.3966  -2.0089   0.0521   0.0543   0.7231   0.7246
     8.9665  11.2579  13.4541  13.4779

     occupation numbers 
     1.0000   1.0000   1.0000   1.0000   1.0000   1.0000   1.0001   1.0001
    -0.0001  -0.0000  -0.0000  -0.0000

          k = 0.0833 0.1443-0.1483 (  1500 PWs)   bands (ev):

   -14.1873 -14.1873  -2.2091  -2.2091   0.0532   0.0532   0.7239   0.7239
     9.9446   9.9446  13.4698  13.4698

     occupation numbers 
     1.0000   1.0000   1.0000   1.0000   1.0000   1.0000   1.0001   1.0001
    -0.0000  -0.0000  -0.0000  -0.0000

          k = 0.0833 0.2406 0.0000 (  1500 PWs)   bands (ev):

   -13.5605 -13.5192  -1.6966  -1.6548  -1.6473  -1.1684  -0.2715  -0.2672
     9.4608  12.7005  12.8157  13.0114

     occupation numbers 
     1.0000   1.0000   1.0000   1.0000   1.0000   1.0000   1.0000   1.0000
    -0.0000  -0.0000  -0.0000  -0.0000

          k = 0.0833 0.2406 0.0741 (  1503 PWs)   bands (ev):

   -13.5545 -13.5253  -1.6537  -1.6485  -1.6247  -1.2520  -0.2709  -0.2678
     9.8079  12.0171  12.8199  12.9019

     occupation numbers 
     1.0000   1.0000   1.0000   1.0000   1.0000   1.0000   1.0000   1.0000
    -0.0000  -0.0000  -0.0000  -0.0000

          k = 0.0833 0.2406-0.1483 (  1506 PWs)   bands (ev):

   -13.5399 -13.5399  -1.6511  -1.6511  -1.4442  -1.4442  -0.2694  -0.2694
    10.7578  10.7578  12.8544  12.8546

     occupation numbers 
     1.0000   1.0000   1.0000   1.0000   1.0000   1.0000   1.0000   1.0000
    -0.0000  -0.0000  -0.0000  -0.0000

          k = 0.0833 0.3368 0.0000 (  1514 PWs)   bands (ev):

   -12.5985 -12.5605  -3.7223  -3.7092  -1.1558  -1.1498  -0.5688  -0.0774
    10.6325  10.7303  10.7844  13.3110

     occupation numbers 
     1.0000   1.0000   1.0000   1.0000   1.0000   1.0000   1.0000   1.0000
    -0.0000  -0.0000  -0.0000  -0.0000

          k = 0.0833 0.3368 0.0741 (  1506 PWs)   bands (ev):

   -12.5930 -12.5661  -3.7204  -3.7111  -1.1549  -1.1507  -0.5016  -0.1547
    10.6302  10.7505  11.0965  13.1321

     occupation numbers 
     1.0000   1.0000   1.0000   1.0000   1.0000   1.0000   1.0000   1.0000
    -0.0000  -0.0000  -0.0000  -0.0000

          k = 0.0833 0.3368-0.1483 (  1504 PWs)   bands (ev):

   -12.5796 -12.5796  -3.7158  -3.7158  -1.1528  -1.1528  -0.3332  -0.3332
    10.6869  10.6869  12.0055  12.0055

     occupation numbers 
     1.0000   1.0000   1.0000   1.0000   1.0000   1.0000   1.0000   1.0000
    -0.0000  -0.0000  -0.0000  -0.0000

          k = 0.0833 0.4330 0.0000 (  1522 PWs)   bands (ev):

   -11.3420 -11.3082  -5.8388  -5.8204  -1.7892  -1.7824   0.8347   1.2600
     8.3994   8.6308  12.3882  13.0294

     occupation numbers 
     1.0000   1.0000   1.0000   1.0000   1.0000   1.0000   1.0001   1.0006
    -0.0007  -0.0003  -0.0000  -0.0000

          k = 0.0833 0.4330 0.0741 (  1517 PWs)   bands (ev):

   -11.3371 -11.3132  -5.8361  -5.8231  -1.7882  -1.7834   0.8936   1.1939
     8.4285   8.5924  12.6790  13.0351

     occupation numbers 
     1.0000   1.0000   1.0000   1.0000   1.0000   1.0000   1.0001   1.0005
    -0.0007  -0.0004  -0.0000  -0.0000

          k = 0.0833 0.4330-0.1483 (  1514 PWs)   bands (ev):

   -11.3252 -11.3252  -5.8296  -5.8296  -1.7858  -1.7858   1.0402   1.0402
     8.5058   8.5058  13.0208  13.0208

     occupation numbers 
     1.0000   1.0000   1.0000   1.0000   1.0000   1.0000   1.0003   1.0003
    -0.0005  -0.0005  -0.0000  -0.0000

          k = 0.0833 0.5292 0.0000 (  1524 PWs)   bands (ev):

    -9.8675  -9.8404  -7.7717  -7.7504  -2.1169  -2.1098   2.2102   2.4762
     6.6437   6.8827  12.8529  12.9279

     occupation numbers 
     1.0000   1.0000   1.0000   1.0000   1.0000   1.0000   1.0093   1.0161
    -0.0346  -0.0285  -0.0000  -0.0000

          k = 0.0833 0.5292 0.0741 (  1515 PWs)   bands (ev):

    -9.8636  -9.8444  -7.7686  -7.7535  -2.1159  -2.1108   2.2491   2.4372
     6.6712   6.8403  12.8639  12.9169

     occupation numbers 
     1.0000   1.0000   1.0000   1.0000   1.0000   1.0000   1.0101   1.0149
    -0.0341  -0.0298  -0.0000  -0.0000

          k = 0.0833 0.5292-0.1483 (  1524 PWs)   bands (ev):

    -9.8540  -9.8540  -7.7611  -7.7611  -2.1134  -2.1134   2.3431   2.3431
     6.7483   6.7483  12.8904  12.8904

     occupation numbers 
     1.0000   1.0000   1.0000   1.0000   1.0000   1.0000   1.0124   1.0124
    -0.0324  -0.0324  -0.0000  -0.0000

          k = 0.1667 0.2887 0.0000 (  1509 PWs)   bands (ev):

   -12.7582 -12.7196  -2.9811  -2.9750  -1.6265  -1.6221  -0.7502  -0.2513
    10.5226  11.0972  11.1977  13.6826

     occupation numbers 
     1.0000   1.0000   1.0000   1.0000   1.0000   1.0000   1.0000   1.0000
    -0.0000  -0.0000  -0.0000  -0.0000

          k = 0.1667 0.2887 0.0741 (  1516 PWs)   bands (ev):

   -12.7526 -12.7253  -2.9802  -2.9759  -1.6259  -1.6228  -0.6821  -0.3299
    10.8554  11.1118  11.1831  12.9642

     occupation numbers 
     1.0000   1.0000   1.0000   1.0000   1.0000   1.0000   1.0000   1.0000
    -0.0000  -0.0000  -0.0000  -0.0000

          k = 0.1667 0.2887-0.1483 (  1518 PWs)   bands (ev):

   -12.7390 -12.7390  -2.9781  -2.9781  -1.6244  -1.6244  -0.5112  -0.5112
    11.1470  11.1470  11.7650  11.7650

     occupation numbers 
     1.0000   1.0000   1.0000   1.0000   1.0000   1.0000   1.0000   1.0000
    -0.0000  -0.0000  -0.0000  -0.0000

          k = 0.1667 0.3849 0.0000 (  1517 PWs)   bands (ev):

   -11.6537 -11.6188  -4.7048  -4.6922  -2.6807  -2.6725   0.5193   0.9700
     9.1413   9.2848  11.9943  14.9277

     occupation numbers 
     1.0000   1.0000   1.0000   1.0000   1.0000   1.0000   1.0000   1.0002
    -0.0000  -0.0000  -0.0000  -0.0000

          k = 0.1667 0.3849 0.0741 (  1515 PWs)   bands (ev):

   -11.6486 -11.6239  -4.7029  -4.6940  -2.6795  -2.6737   0.5813   0.8996
     9.1611   9.2628  12.3009  14.1635

     occupation numbers 
     1.0000   1.0000   1.0000   1.0000   1.0000   1.0000   1.0000   1.0001
    -0.0000  -0.0000  -0.0000  -0.0000

          k = 0.1667 0.3849-0.1483 (  1524 PWs)   bands (ev):

   -11.6364 -11.6364  -4.6985  -4.6985  -2.6766  -2.6766   0.7362   0.7362
     9.2110   9.2110  13.1248  13.1249

     occupation numbers 
     1.0000   1.0000   1.0000   1.0000   1.0000   1.0000   1.0001   1.0001
    -0.0000  -0.0000  -0.0000  -0.0000

          k = 0.1667 0.4811 0.0000 (  1522 PWs)   bands (ev):

   -10.2823 -10.2522  -6.6092  -6.5903  -3.2567  -3.2462   1.9815   2.3402
     7.2181   7.4120  13.8412  14.7176

     occupation numbers 
     1.0000   1.0000   1.0000   1.0000   1.0000   1.0000   1.0053   1.0123
    -0.0174  -0.0119  -0.0000  -0.0000

          k = 0.1667 0.4811 0.0741 (  1525 PWs)   bands (ev):

   -10.2779 -10.2566  -6.6064  -6.5931  -3.2552  -3.2478   2.0319   2.2854
     7.2436   7.3809  14.0854  14.7245

     occupation numbers 
     1.0000   1.0000   1.0000   1.0000   1.0000   1.0000   1.0060   1.0109
    -0.0166  -0.0127  -0.0000  -0.0000

          k = 0.1667 0.4811-0.1483 (  1520 PWs)   bands (ev):

   -10.2673 -10.2673  -6.5998  -6.5998  -3.2515  -3.2515   2.1564   2.1564
     7.3096   7.3096  14.6259  14.6260

     occupation numbers 
     1.0000   1.0000   1.0000   1.0000   1.0000   1.0000   1.0082   1.0082
    -0.0146  -0.0146  -0.0000  -0.0000

          k = 0.1667 0.5774 0.0000 (  1527 PWs)   bands (ev):

    -9.0497  -9.0355  -8.0292  -8.0187  -3.4415  -3.4305   2.9566   3.1258
     6.1954   6.3260  14.6186  14.7577

     occupation numbers 
     1.0000   1.0000   1.0000   1.0000   1.0000   1.0000   1.0316   1.0350
    -0.0224  -0.0310  -0.0000  -0.0000

          k = 0.1667 0.5774 0.0741 (  1526 PWs)   bands (ev):

    -9.0476  -9.0375  -8.0278  -8.0203  -3.4399  -3.4321   2.9830   3.1029
     6.2076   6.3004  14.6367  14.7343

     occupation numbers 
     1.0000   1.0000   1.0000   1.0000   1.0000   1.0000   1.0323   1.0347
    -0.0234  -0.0298  -0.0000  -0.0000

          k = 0.1667 0.5774-0.1483 (  1532 PWs)   bands (ev):

    -9.0425  -9.0425  -8.0241  -8.0241  -3.4360  -3.4360   3.0447   3.0447
     6.2473   6.2473  14.6825  14.6825

     occupation numbers 
     1.0000   1.0000   1.0000   1.0000   1.0000   1.0000   1.0337   1.0337
    -0.0265  -0.0265  -0.0000  -0.0000

          k = 0.2500 0.4330 0.0000 (  1525 PWs)   bands (ev):

   -10.4294 -10.3986  -5.7370  -5.7278  -4.1544  -4.1473   1.8849   2.2723
     7.5376   7.6740  13.6416  15.3860

     occupation numbers 
     1.0000   1.0000   1.0000   1.0000   1.0000   1.0000   1.0041   1.0106
    -0.0090  -0.0065  -0.0000  -0.0000

          k = 0.2500 0.4330 0.0741 (  1530 PWs)   bands (ev):

   -10.4249 -10.4032  -5.7357  -5.7292  -4.1534  -4.1484   1.9388   2.2125
     7.5575   7.6539  13.8714  15.0843

     occupation numbers 
     1.0000   1.0000   1.0000   1.0000   1.0000   1.0000   1.0047   1.0093
    -0.0086  -0.0068  -0.0000  -0.0000

          k = 0.2500 0.4330-0.1483 (  1534 PWs)   bands (ev):

   -10.4141 -10.4141  -5.7324  -5.7324  -4.1509  -4.1509   2.0726   2.0726
     7.6055   7.6055  14.4495  14.4495

     occupation numbers 
     1.0000   1.0000   1.0000   1.0000   1.0000   1.0000   1.0067   1.0067
    -0.0077  -0.0077  -0.0000  -0.0000

          k = 0.2500 0.5292 0.0000 (  1531 PWs)   bands (ev):

    -9.0119  -8.9876  -7.1537  -7.1380  -4.8619  -4.8501   3.3206   3.5848
     6.0313   6.1617  15.5766  15.6384

     occupation numbers 
     1.0000   1.0000   1.0000   1.0000   1.0000   1.0000   1.0341   1.0182
    -0.0028  -0.0192  -0.0000  -0.0000

          k = 0.2500 0.5292 0.0741 (  1531 PWs)   bands (ev):

    -9.0083  -8.9912  -7.1514  -7.1403  -4.8602  -4.8519   3.3589   3.5458
     6.0484   6.1407  15.4067  15.4996

     occupation numbers 
     1.0000   1.0000   1.0000   1.0000   1.0000   1.0000   1.0331   1.0220
    -0.0054  -0.0170  -0.0000  -0.0000

          k = 0.2500 0.5292-0.1483 (  1544 PWs)   bands (ev):

    -8.9998  -8.9998  -7.1459  -7.1459  -4.8560  -4.8560   3.4520   3.4520
     6.0926   6.0926  15.3425  15.3426

     occupation numbers 
     1.0000   1.0000   1.0000   1.0000   1.0000   1.0000   1.0289   1.0289
    -0.0114  -0.0114  -0.0000  -0.0000

          k = 0.3333 0.5774 0.0000 (  1527 PWs)   bands (ev):

    -7.8020  -7.7897  -7.7896  -7.7778  -5.7424  -5.7424   4.6459   4.8001
     4.8002   4.9627  15.5001  15.5007

     occupation numbers 
     1.0000   1.0000   1.0000   1.0000   1.0000   1.0000   0.6362   0.5422
     0.5422   0.4413  -0.0000  -0.0000

          k = 0.3333 0.5774 0.0741 (  1530 PWs)   bands (ev):

    -7.7985  -7.7897  -7.7895  -7.7813  -5.7425  -5.7425   4.6904   4.8011
     4.8011   4.9142  15.3317  15.3320

     occupation numbers 
     1.0000   1.0000   1.0000   1.0000   1.0000   1.0000   0.6095   0.5416
     0.5416   0.4713  -0.0000  -0.0000

          k = 0.3333 0.5774-0.1483 (  1542 PWs)   bands (ev):

    -7.7906  -7.7906  -7.7891  -7.7891  -5.7425  -5.7425   4.7998   4.7998
     4.8024   4.8024  15.2003  15.2003

     occupation numbers 
     1.0000   1.0000   1.0000   1.0000   1.0000   1.0000   0.5424   0.5424
     0.5408   0.5408  -0.0000  -0.0000

          k =-0.0833-0.0481 0.0000 (  1493 PWs)   bands (ev):

   -14.5350 -14.4904  -2.8635  -2.3043   1.0843   1.0874   1.3945   1.3970
     8.1841  11.6859  13.1488  13.1737

     occupation numbers 
     1.0000   1.0000   1.0000   1.0000   1.0003   1.0003   1.0009   1.0009
    -0.0015  -0.0000  -0.0000  -0.0000

          k =-0.0833-0.0481-0.0741 (  1489 PWs)   bands (ev):

   -14.5286 -14.4970  -2.7879  -2.3932   1.0848   1.0870   1.3949   1.3966
     8.5448  10.8635  13.1596  13.1722

     occupation numbers 
     1.0000   1.0000   1.0000   1.0000   1.0003   1.0003   1.0009   1.0009
    -0.0004  -0.0000  -0.0000  -0.0000

          k =-0.0833-0.0481 0.1483 (  1486 PWs)   bands (ev):

   -14.5128 -14.5128  -2.5971  -2.5971   1.0859   1.0859   1.3957   1.3957
     9.5340   9.5340  13.1676  13.1676

     occupation numbers 
     1.0000   1.0000   1.0000   1.0000   1.0003   1.0003   1.0009   1.0009
    -0.0000  -0.0000  -0.0000  -0.0000

          k =-0.1667-0.0962 0.0000 (  1503 PWs)   bands (ev):

   -14.0463 -14.0033  -2.2762  -1.7320  -0.5497  -0.5430   0.6052   0.6089
     8.8220  12.2532  13.0746  13.1289

     occupation numbers 
     1.0000   1.0000   1.0000   1.0000   1.0000   1.0000   1.0000   1.0000
    -0.0002  -0.0000  -0.0000  -0.0000

          k =-0.1667-0.0962-0.0741 (  1496 PWs)   bands (ev):

   -14.0400 -14.0097  -2.2024  -1.8183  -0.5487  -0.5440   0.6057   0.6083
     9.1764  11.4487  13.1003  13.1261

     occupation numbers 
     1.0000   1.0000   1.0000   1.0000   1.0000   1.0000   1.0000   1.0000
    -0.0000  -0.0000  -0.0000  -0.0000

          k =-0.1667-0.0962 0.1483 (  1490 PWs)   bands (ev):

   -14.0249 -14.0249  -2.0166  -2.0166  -0.5464  -0.5464   0.6071   0.6071
    10.1475  10.1475  13.1166  13.1166

     occupation numbers 
     1.0000   1.0000   1.0000   1.0000   1.0000   1.0000   1.0000   1.0000
    -0.0000  -0.0000  -0.0000  -0.0000

          k =-0.2500-0.1443 0.0000 (  1497 PWs)   bands (ev):

   -13.2381 -13.1979  -2.6430  -2.6315  -1.3169  -0.8006  -0.2715  -0.2670
     9.8824  11.9205  12.0398  12.7863

     occupation numbers 
     1.0000   1.0000   1.0000   1.0000   1.0000   1.0000   1.0000   1.0000
    -0.0000  -0.0000  -0.0000  -0.0000

          k =-0.2500-0.1443-0.0741 (  1502 PWs)   bands (ev):

   -13.2322 -13.2039  -2.6413  -2.6332  -1.2466  -0.8822  -0.2708  -0.2677
    10.2193  11.8861  12.0088  12.5418

     occupation numbers 
     1.0000   1.0000   1.0000   1.0000   1.0000   1.0000   1.0000   1.0000
    -0.0000  -0.0000  -0.0000  -0.0000

          k =-0.2500-0.1443 0.1483 (  1508 PWs)   bands (ev):

   -13.2181 -13.2181  -2.6373  -2.6373  -1.0700  -1.0700  -0.2692  -0.2692
    11.1184  11.1184  12.0712  12.0713

     occupation numbers 
     1.0000   1.0000   1.0000   1.0000   1.0000   1.0000   1.0000   1.0000
    -0.0000  -0.0000  -0.0000  -0.0000

          k =-0.3333-0.1925 0.0000 (  1504 PWs)   bands (ev):

   -12.1227 -12.0862  -4.8404  -4.8239  -1.0025  -0.9976  -0.0325   0.4353
     9.5932   9.8090  11.3488  12.4548

     occupation numbers 
     1.0000   1.0000   1.0000   1.0000   1.0000   1.0000   1.0000   1.0000
    -0.0000  -0.0000  -0.0000  -0.0000

          k =-0.3333-0.1925-0.0741 (  1509 PWs)   bands (ev):

   -12.1174 -12.0916  -4.8380  -4.8264  -1.0018  -0.9984   0.0317   0.3621
     9.6157   9.7695  11.6831  12.4546

     occupation numbers 
     1.0000   1.0000   1.0000   1.0000   1.0000   1.0000   1.0000   1.0000
    -0.0000  -0.0000  -0.0000  -0.0000

          k =-0.3333-0.1925 0.1483 (  1502 PWs)   bands (ev):

   -12.1045 -12.1045  -4.8322  -4.8322  -1.0001  -1.0001   0.1924   0.1924
     9.6851   9.6851  12.3714  12.3715

     occupation numbers 
     1.0000   1.0000   1.0000   1.0000   1.0000   1.0000   1.0000   1.0000
    -0.0000  -0.0000  -0.0000  -0.0000

          k =-0.4167-0.2406 0.0000 (  1508 PWs)   bands (ev):

   -10.7314 -10.6998  -6.9339  -6.9127  -1.4740  -1.4689   1.4286   1.7963
     7.4440   7.7162  12.2046  12.2617

     occupation numbers 
     1.0000   1.0000   1.0000   1.0000   1.0000   1.0000   1.0010   1.0032
    -0.0111  -0.0058  -0.0000  -0.0000

          k =-0.4167-0.2406-0.0741 (  1510 PWs)   bands (ev):

   -10.7268 -10.7045  -6.9308  -6.9158  -1.4733  -1.4696   1.4803   1.7401
     7.4771   7.6697  12.2144  12.2551

     occupation numbers 
     1.0000   1.0000   1.0000   1.0000   1.0000   1.0000   1.0012   1.0027
    -0.0103  -0.0066  -0.0000  -0.0000

          k =-0.4167-0.2406 0.1483 (  1500 PWs)   bands (ev):

   -10.7157 -10.7157  -6.9233  -6.9233  -1.4714  -1.4714   1.6079   1.6079
     7.5668   7.5668  12.2360  12.2360

     occupation numbers 
     1.0000   1.0000   1.0000   1.0000   1.0000   1.0000   1.0018   1.0018
    -0.0084  -0.0084  -0.0000  -0.0000

          k = 0.5000 0.2887 0.0000 (  1508 PWs)   bands (ev):

    -9.4706  -9.4557  -8.4236  -8.4116  -1.6359  -1.6307   2.3579   2.5308
     6.3778   6.6158  12.1223  12.1884

     occupation numbers 
     1.0000   1.0000   1.0000   1.0000   1.0000   1.0000   1.0128   1.0178
    -0.0331  -0.0350  -0.0000  -0.0000

          k = 0.5000 0.2887-0.0741 (  1520 PWs)   bands (ev):

    -9.4685  -9.4579  -8.4219  -8.4134  -1.6351  -1.6315   2.3847   2.5072
     6.4026   6.5708  12.1320  12.1786

     occupation numbers 
     1.0000   1.0000   1.0000   1.0000   1.0000   1.0000   1.0135   1.0170
    -0.0338  -0.0354  -0.0000  -0.0000

          k = 0.5000 0.2887 0.1483 (  1520 PWs)   bands (ev):

    -9.4631  -9.4631  -8.4178  -8.4178  -1.6333  -1.6333   2.4475   2.4475
     6.4766   6.4766  12.1552  12.1552

     occupation numbers 
     1.0000   1.0000   1.0000   1.0000   1.0000   1.0000   1.0152   1.0152
    -0.0352  -0.0352  -0.0000  -0.0000

          k = 0.1667 0.0000 0.0000 (  1505 PWs)   bands (ev):

   -14.2089 -14.1654  -2.4711  -1.9217   0.0544   0.0575   0.7199   0.7221
     8.6098  12.0704  13.4260  13.4763

     occupation numbers 
     1.0000   1.0000   1.0000   1.0000   1.0000   1.0000   1.0001   1.0001
    -0.0004  -0.0000  -0.0000  -0.0000

          k = 0.1667 0.0000-0.0741 (  1502 PWs)   bands (ev):

   -14.2026 -14.1718  -2.3966  -2.0089   0.0548   0.0570   0.7203   0.7218
     8.9665  11.2578  13.4497  13.4736

     occupation numbers 
     1.0000   1.0000   1.0000   1.0000   1.0000   1.0000   1.0001   1.0001
    -0.0001  -0.0000  -0.0000  -0.0000

          k = 0.1667 0.0000 0.1483 (  1500 PWs)   bands (ev):

   -14.1873 -14.1873  -2.2091  -2.2091   0.0559   0.0559   0.7210   0.7210
     9.9446   9.9446  13.4655  13.4655

     occupation numbers 
     1.0000   1.0000   1.0000   1.0000   1.0000   1.0000   1.0001   1.0001
    -0.0000  -0.0000  -0.0000  -0.0000

          k =-0.1667-0.1925 0.0000 (  1500 PWs)   bands (ev):

   -13.5604 -13.5192  -1.6966  -1.6536  -1.6461  -1.1685  -0.2729  -0.2685
     9.4608  12.6999  12.8160  13.0123

     occupation numbers 
     1.0000   1.0000   1.0000   1.0000   1.0000   1.0000   1.0000   1.0000
    -0.0000  -0.0000  -0.0000  -0.0000

          k = 0.2500-0.0481 0.0000 (  1500 PWs)   bands (ev):

   -13.5604 -13.5192  -1.6967  -1.6524  -1.6450  -1.1686  -0.2741  -0.2698
     9.4607  12.7002  12.8166  13.0123

     occupation numbers 
     1.0000   1.0000   1.0000   1.0000   1.0000   1.0000   1.0000   1.0000
    -0.0000  -0.0000  -0.0000  -0.0000

          k =-0.1667-0.1925-0.0741 (  1503 PWs)   bands (ev):

   -13.5545 -13.5253  -1.6525  -1.6473  -1.6248  -1.2521  -0.2722  -0.2691
     9.8079  12.0168  12.8202  12.9022

     occupation numbers 
     1.0000   1.0000   1.0000   1.0000   1.0000   1.0000   1.0000   1.0000
    -0.0000  -0.0000  -0.0000  -0.0000

          k = 0.2500-0.0481-0.0741 (  1503 PWs)   bands (ev):

   -13.5544 -13.5253  -1.6514  -1.6461  -1.6248  -1.2521  -0.2735  -0.2704
     9.8079  12.0167  12.8208  12.9027

     occupation numbers 
     1.0000   1.0000   1.0000   1.0000   1.0000   1.0000   1.0000   1.0000
    -0.0000  -0.0000  -0.0000  -0.0000

          k =-0.1667-0.1925 0.1483 (  1506 PWs)   bands (ev):

   -13.5399 -13.5399  -1.6499  -1.6499  -1.4443  -1.4443  -0.2707  -0.2707
    10.7577  10.7577  12.8548  12.8548

     occupation numbers 
     1.0000   1.0000   1.0000   1.0000   1.0000   1.0000   1.0000   1.0000
    -0.0000  -0.0000  -0.0000  -0.0000

          k = 0.2500-0.0481 0.1483 (  1506 PWs)   bands (ev):

   -13.5399 -13.5399  -1.6487  -1.6487  -1.4444  -1.4444  -0.2720  -0.2720
    10.7576  10.7576  12.8553  12.8554

     occupation numbers 
     1.0000   1.0000   1.0000   1.0000   1.0000   1.0000   1.0000   1.0000
    -0.0000  -0.0000  -0.0000  -0.0000

          k =-0.2500-0.2406 0.0000 (  1514 PWs)   bands (ev):

   -12.5985 -12.5605  -3.7212  -3.7080  -1.1572  -1.1513  -0.5689  -0.0776
    10.6332  10.7303  10.7850  13.3099

     occupation numbers 
     1.0000   1.0000   1.0000   1.0000   1.0000   1.0000   1.0000   1.0000
    -0.0000  -0.0000  -0.0000  -0.0000

          k = 0.3333-0.0962 0.0000 (  1514 PWs)   bands (ev):

   -12.5985 -12.5604  -3.7207  -3.7076  -1.1577  -1.1518  -0.5690  -0.0777
    10.6337  10.7303  10.7855  13.3093

     occupation numbers 
     1.0000   1.0000   1.0000   1.0000   1.0000   1.0000   1.0000   1.0000
    -0.0000  -0.0000  -0.0000  -0.0000

          k =-0.2500-0.2406-0.0741 (  1506 PWs)   bands (ev):

   -12.5930 -12.5661  -3.7192  -3.7100  -1.1564  -1.1521  -0.5018  -0.1548
    10.6308  10.7510  11.0967  13.1326

     occupation numbers 
     1.0000   1.0000   1.0000   1.0000   1.0000   1.0000   1.0000   1.0000
    -0.0000  -0.0000  -0.0000  -0.0000

          k = 0.3333-0.0962-0.0741 (  1506 PWs)   bands (ev):

   -12.5930 -12.5661  -3.7188  -3.7095  -1.1569  -1.1526  -0.5019  -0.1550
    10.6313  10.7515  11.0967  13.1324

     occupation numbers 
     1.0000   1.0000   1.0000   1.0000   1.0000   1.0000   1.0000   1.0000
    -0.0000  -0.0000  -0.0000  -0.0000

          k =-0.2500-0.2406 0.1483 (  1504 PWs)   bands (ev):

   -12.5796 -12.5796  -3.7146  -3.7146  -1.1543  -1.1543  -0.3333  -0.3333
    10.6875  10.6875  12.0057  12.0057

     occupation numbers 
     1.0000   1.0000   1.0000   1.0000   1.0000   1.0000   1.0000   1.0000
    -0.0000  -0.0000  -0.0000  -0.0000

          k = 0.3333-0.0962 0.1483 (  1504 PWs)   bands (ev):

   -12.5796 -12.5796  -3.7142  -3.7142  -1.1547  -1.1547  -0.3335  -0.3335
    10.6880  10.6880  12.0055  12.0055

     occupation numbers 
     1.0000   1.0000   1.0000   1.0000   1.0000   1.0000   1.0000   1.0000
    -0.0000  -0.0000  -0.0000  -0.0000

          k =-0.3333-0.2887 0.0000 (  1522 PWs)   bands (ev):

   -11.3420 -11.3082  -5.8378  -5.8193  -1.7906  -1.7838   0.8343   1.2595
     8.4007   8.6320  12.3882  13.0287

     occupation numbers 
     1.0000   1.0000   1.0000   1.0000   1.0000   1.0000   1.0001   1.0006
    -0.0007  -0.0003  -0.0000  -0.0000

          k = 0.4167-0.1443 0.0000 (  1522 PWs)   bands (ev):

   -11.3420 -11.3082  -5.8376  -5.8192  -1.7908  -1.7840   0.8341   1.2593
     8.4010   8.6324  12.3881  13.0284

     occupation numbers 
     1.0000   1.0000   1.0000   1.0000   1.0000   1.0000   1.0001   1.0006
    -0.0007  -0.0003  -0.0000  -0.0000

          k =-0.3333-0.2887-0.0741 (  1517 PWs)   bands (ev):

   -11.3371 -11.3132  -5.8351  -5.8220  -1.7896  -1.7848   0.8931   1.1934
     8.4297   8.5936  12.6790  13.0344

     occupation numbers 
     1.0000   1.0000   1.0000   1.0000   1.0000   1.0000   1.0001   1.0005
    -0.0007  -0.0004  -0.0000  -0.0000

          k = 0.4167-0.1443-0.0741 (  1517 PWs)   bands (ev):

   -11.3371 -11.3132  -5.8349  -5.8219  -1.7898  -1.7850   0.8930   1.1933
     8.4301   8.5940  12.6787  13.0341

     occupation numbers 
     1.0000   1.0000   1.0000   1.0000   1.0000   1.0000   1.0001   1.0005
    -0.0007  -0.0004  -0.0000  -0.0000

          k =-0.3333-0.2887 0.1483 (  1514 PWs)   bands (ev):

   -11.3252 -11.3252  -5.8285  -5.8285  -1.7873  -1.7873   1.0397   1.0397
     8.5070   8.5070  13.0203  13.0203

     occupation numbers 
     1.0000   1.0000   1.0000   1.0000   1.0000   1.0000   1.0003   1.0003
    -0.0005  -0.0005  -0.0000  -0.0000

          k = 0.4167-0.1443 0.1483 (  1514 PWs)   bands (ev):

   -11.3251 -11.3251  -5.8284  -5.8284  -1.7874  -1.7874   1.0395   1.0395
     8.5074   8.5074  13.0198  13.0199

     occupation numbers 
     1.0000   1.0000   1.0000   1.0000   1.0000   1.0000   1.0003   1.0003
    -0.0005  -0.0005  -0.0000  -0.0000

          k =-0.4167-0.3368 0.0000 (  1524 PWs)   bands (ev):

    -9.8678  -9.8407  -7.7705  -7.7492  -2.1183  -2.1112   2.2091   2.4749
     6.6458   6.8848  12.8522  12.9272

     occupation numbers 
     1.0000   1.0000   1.0000   1.0000   1.0000   1.0000   1.0092   1.0161
    -0.0345  -0.0284  -0.0000  -0.0000

          k = 0.5000-0.1925 0.0000 (  1524 PWs)   bands (ev):

    -9.8678  -9.8407  -7.7705  -7.7491  -2.1184  -2.1112   2.2090   2.4748
     6.6459   6.8850  12.8521  12.9271

     occupation numbers 
     1.0000   1.0000   1.0000   1.0000   1.0000   1.0000   1.0092   1.0161
    -0.0345  -0.0284  -0.0000  -0.0000

          k =-0.4167-0.3368-0.0741 (  1515 PWs)   bands (ev):

    -9.8638  -9.8447  -7.7674  -7.7523  -2.1173  -2.1122   2.2479   2.4360
     6.6732   6.8424  12.8633  12.9163

     occupation numbers 
     1.0000   1.0000   1.0000   1.0000   1.0000   1.0000   1.0101   1.0149
    -0.0341  -0.0298  -0.0000  -0.0000

          k = 0.5000-0.1925-0.0741 (  1515 PWs)   bands (ev):

    -9.8638  -9.8446  -7.7674  -7.7523  -2.1173  -2.1123   2.2478   2.4359
     6.6734   6.8426  12.8632  12.9162

     occupation numbers 
     1.0000   1.0000   1.0000   1.0000   1.0000   1.0000   1.0101   1.0149
    -0.0341  -0.0298  -0.0000  -0.0000

          k =-0.4167-0.3368 0.1483 (  1524 PWs)   bands (ev):

    -9.8543  -9.8543  -7.7599  -7.7599  -2.1148  -2.1148   2.3418   2.3418
     6.7503   6.7503  12.8897  12.8897

     occupation numbers 
     1.0000   1.0000   1.0000   1.0000   1.0000   1.0000   1.0123   1.0123
    -0.0324  -0.0324  -0.0000  -0.0000

          k = 0.5000-0.1925 0.1483 (  1524 PWs)   bands (ev):

    -9.8543  -9.8543  -7.7598  -7.7598  -2.1148  -2.1148   2.3417   2.3417
     6.7505   6.7505  12.8896  12.8896

     occupation numbers 
     1.0000   1.0000   1.0000   1.0000   1.0000   1.0000   1.0123   1.0123
    -0.0324  -0.0324  -0.0000  -0.0000

          k = 0.3333 0.0000 0.0000 (  1509 PWs)   bands (ev):

   -12.7582 -12.7196  -2.9791  -2.9730  -1.6287  -1.6243  -0.7504  -0.2515
    10.5226  11.0982  11.1987  13.6823

     occupation numbers 
     1.0000   1.0000   1.0000   1.0000   1.0000   1.0000   1.0000   1.0000
    -0.0000  -0.0000  -0.0000  -0.0000

          k = 0.3333 0.0000-0.0741 (  1516 PWs)   bands (ev):

   -12.7526 -12.7253  -2.9782  -2.9739  -1.6281  -1.6250  -0.6823  -0.3301
    10.8554  11.1128  11.1841  12.9640

     occupation numbers 
     1.0000   1.0000   1.0000   1.0000   1.0000   1.0000   1.0000   1.0000
    -0.0000  -0.0000  -0.0000  -0.0000

          k = 0.3333 0.0000 0.1483 (  1518 PWs)   bands (ev):

   -12.7390 -12.7390  -2.9761  -2.9761  -1.6266  -1.6266  -0.5114  -0.5114
    11.1480  11.1480  11.7649  11.7649

     occupation numbers 
     1.0000   1.0000   1.0000   1.0000   1.0000   1.0000   1.0000   1.0000
    -0.0000  -0.0000  -0.0000  -0.0000

          k =-0.2500-0.3368 0.0000 (  1517 PWs)   bands (ev):

   -11.6537 -11.6188  -4.7040  -4.6914  -2.6816  -2.6734   0.5192   0.9698
     9.1418   9.2852  11.9943  14.9262

     occupation numbers 
     1.0000   1.0000   1.0000   1.0000   1.0000   1.0000   1.0000   1.0002
    -0.0000  -0.0000  -0.0000  -0.0000

          k = 0.4167-0.0481 0.0000 (  1517 PWs)   bands (ev):

   -11.6536 -11.6188  -4.7031  -4.6905  -2.6826  -2.6744   0.5189   0.9695
     9.1427   9.2861  11.9943  14.9299

     occupation numbers 
     1.0000   1.0000   1.0000   1.0000   1.0000   1.0000   1.0000   1.0002
    -0.0000  -0.0000  -0.0000  -0.0000

          k =-0.2500-0.3368-0.0741 (  1515 PWs)   bands (ev):

   -11.6486 -11.6239  -4.7021  -4.6932  -2.6804  -2.6746   0.5812   0.8994
     9.1616   9.2632  12.3009  14.1636

     occupation numbers 
     1.0000   1.0000   1.0000   1.0000   1.0000   1.0000   1.0000   1.0001
    -0.0000  -0.0000  -0.0000  -0.0000

          k = 0.4167-0.0481-0.0741 (  1515 PWs)   bands (ev):

   -11.6486 -11.6239  -4.7013  -4.6924  -2.6814  -2.6756   0.5809   0.8991
     9.1625   9.2642  12.3009  14.1631

     occupation numbers 
     1.0000   1.0000   1.0000   1.0000   1.0000   1.0000   1.0000   1.0001
    -0.0000  -0.0000  -0.0000  -0.0000

          k =-0.2500-0.3368 0.1483 (  1524 PWs)   bands (ev):

   -11.6364 -11.6364  -4.6977  -4.6977  -2.6775  -2.6775   0.7361   0.7361
     9.2114   9.2114  13.1248  13.1249

     occupation numbers 
     1.0000   1.0000   1.0000   1.0000   1.0000   1.0000   1.0001   1.0001
    -0.0000  -0.0000  -0.0000  -0.0000

          k = 0.4167-0.0481 0.1483 (  1524 PWs)   bands (ev):

   -11.6363 -11.6363  -4.6968  -4.6968  -2.6786  -2.6786   0.7358   0.7358
     9.2123   9.2123  13.1246  13.1246

     occupation numbers 
     1.0000   1.0000   1.0000   1.0000   1.0000   1.0000   1.0001   1.0001
    -0.0000  -0.0000  -0.0000  -0.0000

          k =-0.3333-0.3849 0.0000 (  1522 PWs)   bands (ev):

   -10.2823 -10.2523  -6.6082  -6.5893  -3.2578  -3.2474   1.9810   2.3395
     7.2194   7.4131  13.8413  14.7171

     occupation numbers 
     1.0000   1.0000   1.0000   1.0000   1.0000   1.0000   1.0053   1.0123
    -0.0173  -0.0119  -0.0000  -0.0000

          k = 0.5000-0.0962 0.0000 (  1522 PWs)   bands (ev):

   -10.2823 -10.2522  -6.6079  -6.5890  -3.2582  -3.2477   1.9806   2.3392
     7.2200   7.4138  13.8411  14.7165

     occupation numbers 
     1.0000   1.0000   1.0000   1.0000   1.0000   1.0000   1.0053   1.0123
    -0.0173  -0.0119  -0.0000  -0.0000

          k =-0.3333-0.3849-0.0741 (  1525 PWs)   bands (ev):

   -10.2780 -10.2567  -6.6054  -6.5921  -3.2563  -3.2489   2.0313   2.2847
     7.2449   7.3821  14.0855  14.7237

     occupation numbers 
     1.0000   1.0000   1.0000   1.0000   1.0000   1.0000   1.0060   1.0109
    -0.0166  -0.0127  -0.0000  -0.0000

          k = 0.5000-0.0962-0.0741 (  1525 PWs)   bands (ev):

   -10.2779 -10.2567  -6.6052  -6.5918  -3.2566  -3.2493   2.0310   2.2844
     7.2455   7.3828  14.0854  14.7234

     occupation numbers 
     1.0000   1.0000   1.0000   1.0000   1.0000   1.0000   1.0060   1.0109
    -0.0165  -0.0126  -0.0000  -0.0000

          k =-0.3333-0.3849 0.1483 (  1520 PWs)   bands (ev):

   -10.2674 -10.2674  -6.5988  -6.5988  -3.2526  -3.2526   2.1558   2.1558
     7.3108   7.3108  14.6259  14.6259

     occupation numbers 
     1.0000   1.0000   1.0000   1.0000   1.0000   1.0000   1.0082   1.0082
    -0.0146  -0.0146  -0.0000  -0.0000

          k = 0.5000-0.0962 0.1483 (  1520 PWs)   bands (ev):

   -10.2673 -10.2673  -6.5985  -6.5985  -3.2530  -3.2530   2.1555   2.1555
     7.3114   7.3114  14.6251  14.6254

     occupation numbers 
     1.0000   1.0000   1.0000   1.0000   1.0000   1.0000   1.0082   1.0082
    -0.0146  -0.0146  -0.0000  -0.0000

          k =-0.4167-0.4330 0.0000 (  1527 PWs)   bands (ev):

    -9.0506  -9.0364  -8.0273  -8.0167  -3.4428  -3.4318   2.9551   3.1244
     6.1976   6.3283  14.6179  14.7569

     occupation numbers 
     1.0000   1.0000   1.0000   1.0000   1.0000   1.0000   1.0315   1.0350
    -0.0226  -0.0312  -0.0000  -0.0000

          k =-0.4167-0.4330-0.0741 (  1526 PWs)   bands (ev):

    -9.0485  -9.0384  -8.0258  -8.0184  -3.4412  -3.4334   2.9815   3.1014
     6.2099   6.3027  14.6360  14.7336

     occupation numbers 
     1.0000   1.0000   1.0000   1.0000   1.0000   1.0000   1.0322   1.0347
    -0.0236  -0.0299  -0.0000  -0.0000

          k =-0.4167-0.4330 0.1483 (  1532 PWs)   bands (ev):

    -9.0434  -9.0434  -8.0222  -8.0222  -3.4373  -3.4373   3.0432   3.0432
     6.2496   6.2496  14.6817  14.6817

     occupation numbers 
     1.0000   1.0000   1.0000   1.0000   1.0000   1.0000   1.0337   1.0337
    -0.0266  -0.0266  -0.0000  -0.0000

          k = 0.5000-0.0000 0.0000 (  1525 PWs)   bands (ev):

   -10.4294 -10.3986  -5.7355  -5.7264  -4.1560  -4.1490   1.8843   2.2717
     7.5389   7.6753  13.6416  15.3850

     occupation numbers 
     1.0000   1.0000   1.0000   1.0000   1.0000   1.0000   1.0041   1.0106
    -0.0090  -0.0065  -0.0000  -0.0000

          k = 0.5000-0.0000-0.0741 (  1530 PWs)   bands (ev):

   -10.4249 -10.4032  -5.7342  -5.7277  -4.1550  -4.1500   1.9382   2.2118
     7.5588   7.6551  13.8713  15.0835

     occupation numbers 
     1.0000   1.0000   1.0000   1.0000   1.0000   1.0000   1.0047   1.0093
    -0.0086  -0.0068  -0.0000  -0.0000

          k = 0.5000-0.0000 0.1483 (  1534 PWs)   bands (ev):

   -10.4141 -10.4141  -5.7309  -5.7309  -4.1525  -4.1525   2.0721   2.0721
     7.6068   7.6068  14.4491  14.4491

     occupation numbers 
     1.0000   1.0000   1.0000   1.0000   1.0000   1.0000   1.0067   1.0067
    -0.0077  -0.0077  -0.0000  -0.0000

          k =-0.3333-0.4811 0.0000 (  1531 PWs)   bands (ev):

    -9.0121  -8.9878  -7.1527  -7.1370  -4.8627  -4.8510   3.3199   3.5840
     6.0325   6.1626  15.5767  15.6381

     occupation numbers 
     1.0000   1.0000   1.0000   1.0000   1.0000   1.0000   1.0342   1.0183
    -0.0030  -0.0193  -0.0000  -0.0000

          k = 0.5833-0.0481 0.0000 (  1531 PWs)   bands (ev):

    -9.0122  -8.9879  -7.1522  -7.1365  -4.8632  -4.8515   3.3193   3.5834
     6.0333   6.1635  15.5766  15.6373

     occupation numbers 
     1.0000   1.0000   1.0000   1.0000   1.0000   1.0000   1.0342   1.0183
    -0.0031  -0.0194  -0.0000  -0.0000

          k =-0.3333-0.4811-0.0741 (  1531 PWs)   bands (ev):

    -9.0085  -8.9914  -7.1504  -7.1393  -4.8610  -4.8527   3.3582   3.5451
     6.0496   6.1417  15.4065  15.4994

     occupation numbers 
     1.0000   1.0000   1.0000   1.0000   1.0000   1.0000   1.0331   1.0220
    -0.0055  -0.0172  -0.0000  -0.0000

          k = 0.5833-0.0481-0.0741 (  1531 PWs)   bands (ev):

    -9.0086  -8.9915  -7.1499  -7.1388  -4.8615  -4.8532   3.3576   3.5445
     6.0504   6.1425  15.4064  15.4987

     occupation numbers 
     1.0000   1.0000   1.0000   1.0000   1.0000   1.0000   1.0331   1.0221
    -0.0056  -0.0172  -0.0000  -0.0000

          k =-0.3333-0.4811 0.1483 (  1544 PWs)   bands (ev):

    -9.0000  -9.0000  -7.1449  -7.1449  -4.8569  -4.8569   3.4513   3.4513
     6.0936   6.0936  15.3424  15.3424

     occupation numbers 
     1.0000   1.0000   1.0000   1.0000   1.0000   1.0000   1.0289   1.0289
    -0.0115  -0.0115  -0.0000  -0.0000

          k = 0.5833-0.0481 0.1483 (  1544 PWs)   bands (ev):

    -9.0001  -9.0001  -7.1444  -7.1444  -4.8574  -4.8574   3.4507   3.4507
     6.0945   6.0945  15.3419  15.3420

     occupation numbers 
     1.0000   1.0000   1.0000   1.0000   1.0000   1.0000   1.0289   1.0289
    -0.0116  -0.0116  -0.0000  -0.0000

     the Fermi energy is     4.8681 ev

!    total energy              =     -49.71131427 Ry
     estimated scf accuracy    <          1.7E-10 Ry
     smearing contrib. (-TS)   =       0.00990726 Ry
     internal energy E=F+TS    =     -49.72122153 Ry

     The total energy is F=E-TS. E is the sum of the following terms:
     one-electron contribution =     -29.92127831 Ry
     hartree contribution      =      21.74162062 Ry
     xc contribution           =     -18.53826131 Ry
     ewald contribution        =     -23.00330253 Ry

     convergence has been achieved in   7 iterations

     Forces acting on atoms (cartesian axes, Ry/au):

     atom    1 type  1   force =    -0.00000000   -0.00029125    0.00000000
     atom    2 type  1   force =     0.00000000    0.00029125    0.00000000
     atom    3 type  1   force =     0.00000000    0.00029200    0.00000000
     atom    4 type  1   force =    -0.00000000   -0.00029200    0.00000000
     The non-local contrib.  to forces
     atom    1 type  1   force =     0.00000000   -0.00026094    0.00000000
     atom    2 type  1   force =    -0.00000000    0.00026094    0.00000000
     atom    3 type  1   force =     0.00000000    0.00026122    0.00000000
     atom    4 type  1   force =     0.00000000   -0.00026122    0.00000000
     The ionic contribution  to forces
     atom    1 type  1   force =    -0.00000000   -0.00098176   -0.00000000
     atom    2 type  1   force =    -0.00000000    0.00098176    0.00000000
     atom    3 type  1   force =    -0.00000000    0.00098202   -0.00000000
     atom    4 type  1   force =     0.00000000   -0.00098202    0.00000000
     The local contribution  to forces
     atom    1 type  1   force =     0.00000000    0.00094301    0.00000000
     atom    2 type  1   force =     0.00000000   -0.00094301    0.00000000
     atom    3 type  1   force =    -0.00000000   -0.00094350    0.00000000
     atom    4 type  1   force =    -0.00000000    0.00094350    0.00000000
     The core correction contribution to forces
     atom    1 type  1   force =     0.00000000    0.00000849   -0.00000000
     atom    2 type  1   force =     0.00000000   -0.00000849   -0.00000000
     atom    3 type  1   force =     0.00000000   -0.00000775   -0.00000000
     atom    4 type  1   force =     0.00000000    0.00000775   -0.00000000
     The Hubbard contrib.    to forces
     atom    1 type  1   force =     0.00000000    0.00000000    0.00000000
     atom    2 type  1   force =     0.00000000    0.00000000    0.00000000
     atom    3 type  1   force =     0.00000000    0.00000000    0.00000000
     atom    4 type  1   force =     0.00000000    0.00000000    0.00000000
     The SCF correction term to forces
     atom    1 type  1   force =    -0.00000000   -0.00000006    0.00000000
     atom    2 type  1   force =    -0.00000000    0.00000006    0.00000000
     atom    3 type  1   force =     0.00000000    0.00000002    0.00000000
     atom    4 type  1   force =     0.00000000   -0.00000002    0.00000000

     Total force =     0.000583     Total SCF correction =     0.000000


     Computing stress (Cartesian axis) and pressure

          total   stress  (Ry/bohr**3)                   (kbar)     P=      -14.78
  -0.00015194   0.00000000   0.00000000          -22.35        0.00        0.00
   0.00000000  -0.00015046   0.00000000            0.00      -22.13        0.00
   0.00000000   0.00000000   0.00000097            0.00        0.00        0.14

     kinetic stress (kbar)   9263.57     -0.00      0.00
                               -0.00   9262.87      0.00
                                0.00      0.00  10528.13

     local   stress (kbar) -26775.36     -0.00     -0.00
                               -0.00 -26779.76      0.00
                               -0.00      0.00  27092.50

     nonloc. stress (kbar)   1801.36      0.00      0.00
                                0.00   1801.51      0.00
                                0.00      0.00   1655.01

     hartree stress (kbar)   9940.20     -0.00     -0.00
                               -0.00   9940.83     -0.00
                               -0.00     -0.00  -9112.57

     exc-cor stress (kbar)   -165.01      0.00      0.00
                                0.00   -164.98      0.00
                                0.00      0.00   -269.64

     corecor stress (kbar)  -2235.96     -0.00     -0.00
                               -0.00  -2235.99      0.00
                               -0.00      0.00  -2197.69

     ewald   stress (kbar)   8148.85     -0.00     -0.00
                               -0.00   8153.39      0.00
                               -0.00      0.00 -27695.59

     hubbard stress (kbar)      0.00      0.00      0.00
                                0.00      0.00      0.00
                                0.00      0.00      0.00

     DFT-D   stress (kbar)      0.00      0.00      0.00
                                0.00      0.00      0.00
                                0.00      0.00      0.00

     XDM     stress (kbar)      0.00      0.00      0.00
                                0.00      0.00      0.00
                                0.00      0.00      0.00

     dft-nl  stress (kbar)      0.00      0.00      0.00
                                0.00      0.00      0.00
                                0.00      0.00      0.00

     TS-vdW  stress (kbar)      0.00      0.00      0.00
                                0.00      0.00      0.00
                                0.00      0.00      0.00



     Writing output data file ./tmp/C.save/

     init_run     :      8.66s CPU      9.64s WALL (       1 calls)
     electrons    :     70.84s CPU     76.17s WALL (       1 calls)
     forces       :      1.56s CPU      1.65s WALL (       1 calls)
     stress       :      4.28s CPU      4.34s WALL (       1 calls)

     Called by init_run:
     wfcinit      :      6.56s CPU      7.26s WALL (       1 calls)
     wfcinit:atom :      0.21s CPU      0.22s WALL (     129 calls)
     wfcinit:wfcr :      5.09s CPU      5.69s WALL (     129 calls)
     potinit      :      0.57s CPU      0.67s WALL (       1 calls)
     hinit0       :      1.30s CPU      1.42s WALL (       1 calls)

     Called by electrons:
     c_bands      :     59.05s CPU     63.23s WALL (       7 calls)
     sum_band     :      9.78s CPU     10.27s WALL (       7 calls)
     v_of_rho     :      1.65s CPU      2.12s WALL (       8 calls)
     v_h          :      0.09s CPU      0.12s WALL (       8 calls)
     v_xc         :      1.87s CPU      2.32s WALL (      10 calls)
     newd         :      0.55s CPU      0.74s WALL (       8 calls)
     mix_rho      :      0.13s CPU      0.16s WALL (       7 calls)

     Called by c_bands:
     init_us_2    :      2.56s CPU      2.75s WALL (    2193 calls)
     cegterg      :     55.49s CPU     59.40s WALL (     903 calls)

     Called by sum_band:
     sum_band:wei :      0.06s CPU      0.07s WALL (       7 calls)
     sum_band:loo :      8.94s CPU      9.33s WALL (       7 calls)
     sum_band:buf :      0.10s CPU      0.11s WALL (     903 calls)
     sum_band:ini :      0.98s CPU      1.03s WALL (     903 calls)
     sum_band:cal :      0.81s CPU      0.84s WALL (     903 calls)
     sum_band:bec :      0.03s CPU      0.04s WALL (     903 calls)
     addusdens    :      0.42s CPU      0.46s WALL (       7 calls)
     addusd:skk   :      0.01s CPU      0.01s WALL (       7 calls)
     addusd:dgemm :      0.09s CPU      0.11s WALL (       7 calls)
     addusd:qvan2 :      0.19s CPU      0.19s WALL (       7 calls)

     Called by *egterg:
     cdiaghg      :      2.06s CPU      2.24s WALL (    3896 calls)
     cegterg:over :      2.62s CPU      2.80s WALL (    2993 calls)
     cegterg:upda :      1.70s CPU      1.81s WALL (    2993 calls)
     cegterg:last :      2.81s CPU      3.02s WALL (    1978 calls)
     h_psi        :     46.17s CPU     49.63s WALL (    4025 calls)
     s_psi        :      2.55s CPU      2.75s WALL (    4025 calls)
     g_psi        :      0.53s CPU      0.57s WALL (    2993 calls)

     Called by h_psi:
     h_psi:calbec :      2.93s CPU      3.13s WALL (    4025 calls)
     vloc_psi     :     39.84s CPU     42.89s WALL (    4025 calls)
     add_vuspsi   :      2.81s CPU      3.00s WALL (    4025 calls)

     General routines
     calbec       :      4.24s CPU      4.53s WALL (    5573 calls)
     fft          :      1.07s CPU      1.37s WALL (     127 calls)
     ffts         :      0.02s CPU      0.02s WALL (      15 calls)
     fftw         :     37.06s CPU     39.87s WALL (   73268 calls)
     interpolate  :      0.09s CPU      0.13s WALL (       8 calls)

     Parallel routines

     PWSCF        :   1m25.61s CPU   1m32.19s WALL


   This run was terminated on:  17:52:28  23May2022            

=------------------------------------------------------------------------------=
   JOB DONE.
=------------------------------------------------------------------------------=
