
     Program PWSCF v.6.7MaX starts on 23May2022 at 17:49: 1 

     This program is part of the open-source Quantum ESPRESSO suite
     for quantum simulation of materials; please cite
         "P. Giannozzi et al., J. Phys.:Condens. Matter 21 395502 (2009);
         "P. Giannozzi et al., J. Phys.:Condens. Matter 29 465901 (2017);
          URL http://www.quantum-espresso.org", 
     in publications or presentations arising from this work. More details at
     http://www.quantum-espresso.org/quote

     Parallel version (MPI), running on     1 processors

     MPI processes distributed on     1 nodes
     Waiting for input...
     Reading input from standard input

     Current dimensions of program PWSCF are:
     Max number of different atomic species (ntypx) = 10
     Max number of k-points (npk) =  40000
     Max angular momentum in pseudopotentials (lmaxx) =  3

     Subspace diagonalization in iterative solution of the eigenvalue problem:
     a serial algorithm will be used


     G-vector sticks info
     --------------------
     sticks:   dense  smooth     PW     G-vecs:    dense   smooth      PW
     Sum         547     265     85                34301    12031    2223



     bravais-lattice index     =            4
     lattice parameter (alat)  =       4.6676  a.u.
     unit-cell volume          =     297.0066 (a.u.)^3
     number of atoms/cell      =            4
     number of atomic types    =            1
     number of electrons       =        16.00
     number of Kohn-Sham states=           12
     kinetic-energy cutoff     =      45.0000  Ry
     charge density cutoff     =     360.0000  Ry
     scf convergence threshold =      1.0E-09
     mixing beta               =       0.7000
     number of iterations used =            8  plain     mixing
     Exchange-correlation= PBE
                           (   1   4   3   4   0   0   0)

     celldm(1)=   4.667624  celldm(2)=   1.000000  celldm(3)=   3.372470
     celldm(4)=   0.000000  celldm(5)=   0.000000  celldm(6)=   0.000000

     crystal axes: (cart. coord. in units of alat)
               a(1) = (   1.000000   0.000000   0.000000 )  
               a(2) = (  -0.500000   0.866025   0.000000 )  
               a(3) = (   0.000000   0.000000   3.372470 )  

     reciprocal axes: (cart. coord. in units 2 pi/alat)
               b(1) = (  1.000000  0.577350 -0.000000 )  
               b(2) = (  0.000000  1.154701  0.000000 )  
               b(3) = (  0.000000 -0.000000  0.296519 )  


     PseudoPot. # 1 for C  read from file:
     /home/max/Desktop/graphite_DFT/Pseudo/C.pbe-n-rrkjus_psl.1.0.0.UPF
     MD5 check sum: 1fdd950c42eb37d8afe3dd2f8d12311e
     Pseudo is Ultrasoft + core correction, Zval =  4.0
     Generated using &quot;atomic&quot; code by A. Dal Corso  v.6.3MaX
     Using radial grid of 1073 points,  4 beta functions with: 
                l(1) =   0
                l(2) =   0
                l(3) =   1
                l(4) =   1
     Q(r) pseudized with 0 coefficients 


     atomic species   valence    mass     pseudopotential
        C              4.00    12.01100     C ( 1.00)

      8 Sym. Ops., with inversion, found ( 4 have fractional translation)


                                    s                        frac. trans.

      isym =  1     identity                                     

 cryst.   s( 1) = (     1          0          0      )
                  (     0          1          0      )
                  (     0          0          1      )

 cart.    s( 1) = (  1.0000000  0.0000000  0.0000000 )
                  (  0.0000000  1.0000000  0.0000000 )
                  (  0.0000000  0.0000000  1.0000000 )


      isym =  2     180 deg rotation - cart. axis [0,0,1]        

 cryst.   s( 2) = (    -1          0          0      )    f =(  0.0000000 )
                  (     0         -1          0      )       (  0.0000000 )
                  (     0          0          1      )       ( -0.5000000 )

 cart.    s( 2) = ( -1.0000000  0.0000000  0.0000000 )    f =(  0.0000000 )
                  (  0.0000000 -1.0000000  0.0000000 )       (  0.0000000 )
                  (  0.0000000  0.0000000  1.0000000 )       ( -1.6862348 )


      isym =  3     180 deg rotation - cart. axis [0,1,0]        

 cryst.   s( 3) = (    -1          0          0      )    f =(  0.0000000 )
                  (     1          1          0      )       (  0.0000000 )
                  (     0          0         -1      )       (  0.5000000 )

 cart.    s( 3) = ( -1.0000000  0.0000000  0.0000000 )    f =(  0.0000000 )
                  (  0.0000000  1.0000000  0.0000000 )       (  0.0000000 )
                  (  0.0000000  0.0000000 -1.0000000 )       (  1.6862348 )


      isym =  4     180 deg rotation - cart. axis [1,0,0]        

 cryst.   s( 4) = (     1          0          0      )
                  (    -1         -1          0      )
                  (     0          0         -1      )

 cart.    s( 4) = (  1.0000000  0.0000000  0.0000000 )
                  (  0.0000000 -1.0000000  0.0000000 )
                  (  0.0000000  0.0000000 -1.0000000 )


      isym =  5     inversion                                    

 cryst.   s( 5) = (    -1          0          0      )
                  (     0         -1          0      )
                  (     0          0         -1      )

 cart.    s( 5) = ( -1.0000000  0.0000000  0.0000000 )
                  (  0.0000000 -1.0000000  0.0000000 )
                  (  0.0000000  0.0000000 -1.0000000 )


      isym =  6     inv. 180 deg rotation - cart. axis [0,0,1]   

 cryst.   s( 6) = (     1          0          0      )    f =(  0.0000000 )
                  (     0          1          0      )       (  0.0000000 )
                  (     0          0         -1      )       (  0.5000000 )

 cart.    s( 6) = (  1.0000000  0.0000000  0.0000000 )    f =(  0.0000000 )
                  (  0.0000000  1.0000000  0.0000000 )       (  0.0000000 )
                  (  0.0000000  0.0000000 -1.0000000 )       (  1.6862348 )


      isym =  7     inv. 180 deg rotation - cart. axis [0,1,0]   

 cryst.   s( 7) = (     1          0          0      )    f =(  0.0000000 )
                  (    -1         -1          0      )       (  0.0000000 )
                  (     0          0          1      )       ( -0.5000000 )

 cart.    s( 7) = (  1.0000000  0.0000000  0.0000000 )    f =(  0.0000000 )
                  (  0.0000000 -1.0000000  0.0000000 )       (  0.0000000 )
                  (  0.0000000  0.0000000  1.0000000 )       ( -1.6862348 )


      isym =  8     inv. 180 deg rotation - cart. axis [1,0,0]   

 cryst.   s( 8) = (    -1          0          0      )
                  (     1          1          0      )
                  (     0          0          1      )

 cart.    s( 8) = ( -1.0000000  0.0000000  0.0000000 )
                  (  0.0000000  1.0000000  0.0000000 )
                  (  0.0000000  0.0000000  1.0000000 )


     point group D_2h (mmm) 
     there are  8 classes
     the character table:

       E     C2    C2'   C2''  i     s_v   s_v'  s_v''
A_g    1.00  1.00  1.00  1.00  1.00  1.00  1.00  1.00
B_1g   1.00  1.00 -1.00 -1.00  1.00  1.00 -1.00 -1.00
B_2g   1.00 -1.00  1.00 -1.00  1.00 -1.00  1.00 -1.00
B_3g   1.00 -1.00 -1.00  1.00  1.00 -1.00 -1.00  1.00
A_u    1.00  1.00  1.00  1.00 -1.00 -1.00 -1.00 -1.00
B_1u   1.00  1.00 -1.00 -1.00 -1.00 -1.00  1.00  1.00
B_2u   1.00 -1.00  1.00 -1.00 -1.00  1.00 -1.00  1.00
B_3u   1.00 -1.00 -1.00  1.00 -1.00  1.00  1.00 -1.00

     the symmetry operations in each class and the name of the first element:

     E        1
          identity                                               
     C2       2
          180 deg rotation - cart. axis [0,0,1]                  
     C2'      4
          180 deg rotation - cart. axis [1,0,0]                  
     C2''     3
          180 deg rotation - cart. axis [0,1,0]                  
     i        5
          inversion                                              
     s_v      6
          inv. 180 deg rotation - cart. axis [0,0,1]             
     s_v'     8
          inv. 180 deg rotation - cart. axis [1,0,0]             
     s_v''    7
          inv. 180 deg rotation - cart. axis [0,1,0]             

   Cartesian axes

     site n.     atom                  positions (alat units)
         1           C   tau(   1) = (   0.0000000   0.0000000   0.8431174  )
         2           C   tau(   2) = (   0.0000000   0.0000000   2.5293522  )
         3           C   tau(   3) = (   0.0000000   0.5772925   0.8431174  )
         4           C   tau(   4) = (   0.5000000   0.2887329   2.5293522  )

   Crystallographic axes

     site n.     atom                  positions (cryst. coord.)
         1           C   tau(   1) = (  0.0000000  0.0000000  0.2500000  )
         2           C   tau(   2) = (  0.0000000  0.0000000  0.7500000  )
         3           C   tau(   3) = (  0.3333000  0.6666000  0.2500000  )
         4           C   tau(   4) = (  0.6667000  0.3334000  0.7500000  )

     number of k points=   129  Methfessel-Paxton smearing, width (Ry)=  0.3000
                       cart. coord. in units 2pi/alat
        k(    1) = (   0.0000000   0.0000000   0.0000000), wk =   0.0034722
        k(    2) = (   0.0000000   0.0000000   0.0741297), wk =   0.0069444
        k(    3) = (   0.0000000   0.0000000  -0.1482593), wk =   0.0034722
        k(    4) = (   0.0000000   0.0962250   0.0000000), wk =   0.0069444
        k(    5) = (   0.0000000   0.0962250   0.0741297), wk =   0.0138889
        k(    6) = (   0.0000000   0.0962250  -0.1482593), wk =   0.0069444
        k(    7) = (   0.0000000   0.1924501   0.0000000), wk =   0.0069444
        k(    8) = (   0.0000000   0.1924501   0.0741297), wk =   0.0138889
        k(    9) = (   0.0000000   0.1924501  -0.1482593), wk =   0.0069444
        k(   10) = (   0.0000000   0.2886751   0.0000000), wk =   0.0069444
        k(   11) = (   0.0000000   0.2886751   0.0741297), wk =   0.0138889
        k(   12) = (   0.0000000   0.2886751  -0.1482593), wk =   0.0069444
        k(   13) = (   0.0000000   0.3849002   0.0000000), wk =   0.0069444
        k(   14) = (   0.0000000   0.3849002   0.0741297), wk =   0.0138889
        k(   15) = (   0.0000000   0.3849002  -0.1482593), wk =   0.0069444
        k(   16) = (   0.0000000   0.4811252   0.0000000), wk =   0.0069444
        k(   17) = (   0.0000000   0.4811252   0.0741297), wk =   0.0138889
        k(   18) = (   0.0000000   0.4811252  -0.1482593), wk =   0.0069444
        k(   19) = (   0.0000000  -0.5773503   0.0000000), wk =   0.0034722
        k(   20) = (   0.0000000  -0.5773503   0.0741297), wk =   0.0069444
        k(   21) = (   0.0000000  -0.5773503  -0.1482593), wk =   0.0034722
        k(   22) = (   0.0833333   0.1443376   0.0000000), wk =   0.0138889
        k(   23) = (   0.0833333   0.1443376   0.0741297), wk =   0.0277778
        k(   24) = (   0.0833333   0.1443376  -0.1482593), wk =   0.0138889
        k(   25) = (   0.0833333   0.2405626   0.0000000), wk =   0.0138889
        k(   26) = (   0.0833333   0.2405626   0.0741297), wk =   0.0277778
        k(   27) = (   0.0833333   0.2405626  -0.1482593), wk =   0.0138889
        k(   28) = (   0.0833333   0.3367877   0.0000000), wk =   0.0138889
        k(   29) = (   0.0833333   0.3367877   0.0741297), wk =   0.0277778
        k(   30) = (   0.0833333   0.3367877  -0.1482593), wk =   0.0138889
        k(   31) = (   0.0833333   0.4330127   0.0000000), wk =   0.0138889
        k(   32) = (   0.0833333   0.4330127   0.0741297), wk =   0.0277778
        k(   33) = (   0.0833333   0.4330127  -0.1482593), wk =   0.0138889
        k(   34) = (   0.0833333   0.5292377   0.0000000), wk =   0.0138889
        k(   35) = (   0.0833333   0.5292377   0.0741297), wk =   0.0277778
        k(   36) = (   0.0833333   0.5292377  -0.1482593), wk =   0.0138889
        k(   37) = (   0.1666667   0.2886751   0.0000000), wk =   0.0138889
        k(   38) = (   0.1666667   0.2886751   0.0741297), wk =   0.0277778
        k(   39) = (   0.1666667   0.2886751  -0.1482593), wk =   0.0138889
        k(   40) = (   0.1666667   0.3849002   0.0000000), wk =   0.0138889
        k(   41) = (   0.1666667   0.3849002   0.0741297), wk =   0.0277778
        k(   42) = (   0.1666667   0.3849002  -0.1482593), wk =   0.0138889
        k(   43) = (   0.1666667   0.4811252   0.0000000), wk =   0.0138889
        k(   44) = (   0.1666667   0.4811252   0.0741297), wk =   0.0277778
        k(   45) = (   0.1666667   0.4811252  -0.1482593), wk =   0.0138889
        k(   46) = (   0.1666667   0.5773503   0.0000000), wk =   0.0069444
        k(   47) = (   0.1666667   0.5773503   0.0741297), wk =   0.0138889
        k(   48) = (   0.1666667   0.5773503  -0.1482593), wk =   0.0069444
        k(   49) = (   0.2500000   0.4330127   0.0000000), wk =   0.0138889
        k(   50) = (   0.2500000   0.4330127   0.0741297), wk =   0.0277778
        k(   51) = (   0.2500000   0.4330127  -0.1482593), wk =   0.0138889
        k(   52) = (   0.2500000   0.5292377   0.0000000), wk =   0.0138889
        k(   53) = (   0.2500000   0.5292377   0.0741297), wk =   0.0277778
        k(   54) = (   0.2500000   0.5292377  -0.1482593), wk =   0.0138889
        k(   55) = (   0.3333333   0.5773503   0.0000000), wk =   0.0069444
        k(   56) = (   0.3333333   0.5773503   0.0741297), wk =   0.0138889
        k(   57) = (   0.3333333   0.5773503  -0.1482593), wk =   0.0069444
        k(   58) = (  -0.0833333  -0.0481125   0.0000000), wk =   0.0138889
        k(   59) = (  -0.0833333  -0.0481125  -0.0741297), wk =   0.0277778
        k(   60) = (  -0.0833333  -0.0481125   0.1482593), wk =   0.0138889
        k(   61) = (  -0.1666667  -0.0962250   0.0000000), wk =   0.0138889
        k(   62) = (  -0.1666667  -0.0962250  -0.0741297), wk =   0.0277778
        k(   63) = (  -0.1666667  -0.0962250   0.1482593), wk =   0.0138889
        k(   64) = (  -0.2500000  -0.1443376   0.0000000), wk =   0.0138889
        k(   65) = (  -0.2500000  -0.1443376  -0.0741297), wk =   0.0277778
        k(   66) = (  -0.2500000  -0.1443376   0.1482593), wk =   0.0138889
        k(   67) = (  -0.3333333  -0.1924501   0.0000000), wk =   0.0138889
        k(   68) = (  -0.3333333  -0.1924501  -0.0741297), wk =   0.0277778
        k(   69) = (  -0.3333333  -0.1924501   0.1482593), wk =   0.0138889
        k(   70) = (  -0.4166667  -0.2405626   0.0000000), wk =   0.0138889
        k(   71) = (  -0.4166667  -0.2405626  -0.0741297), wk =   0.0277778
        k(   72) = (  -0.4166667  -0.2405626   0.1482593), wk =   0.0138889
        k(   73) = (   0.5000000   0.2886751   0.0000000), wk =   0.0069444
        k(   74) = (   0.5000000   0.2886751  -0.0741297), wk =   0.0138889
        k(   75) = (   0.5000000   0.2886751   0.1482593), wk =   0.0069444
        k(   76) = (   0.1666667   0.0000000   0.0000000), wk =   0.0069444
        k(   77) = (   0.1666667   0.0000000  -0.0741297), wk =   0.0138889
        k(   78) = (   0.1666667   0.0000000   0.1482593), wk =   0.0069444
        k(   79) = (  -0.1666667  -0.1924501   0.0000000), wk =   0.0138889
        k(   80) = (   0.2500000  -0.0481125   0.0000000), wk =   0.0138889
        k(   81) = (  -0.1666667  -0.1924501  -0.0741297), wk =   0.0277778
        k(   82) = (   0.2500000  -0.0481125  -0.0741297), wk =   0.0277778
        k(   83) = (  -0.1666667  -0.1924501   0.1482593), wk =   0.0138889
        k(   84) = (   0.2500000  -0.0481125   0.1482593), wk =   0.0138889
        k(   85) = (  -0.2500000  -0.2405626   0.0000000), wk =   0.0138889
        k(   86) = (   0.3333333  -0.0962250   0.0000000), wk =   0.0138889
        k(   87) = (  -0.2500000  -0.2405626  -0.0741297), wk =   0.0277778
        k(   88) = (   0.3333333  -0.0962250  -0.0741297), wk =   0.0277778
        k(   89) = (  -0.2500000  -0.2405626   0.1482593), wk =   0.0138889
        k(   90) = (   0.3333333  -0.0962250   0.1482593), wk =   0.0138889
        k(   91) = (  -0.3333333  -0.2886751   0.0000000), wk =   0.0138889
        k(   92) = (   0.4166667  -0.1443376   0.0000000), wk =   0.0138889
        k(   93) = (  -0.3333333  -0.2886751  -0.0741297), wk =   0.0277778
        k(   94) = (   0.4166667  -0.1443376  -0.0741297), wk =   0.0277778
        k(   95) = (  -0.3333333  -0.2886751   0.1482593), wk =   0.0138889
        k(   96) = (   0.4166667  -0.1443376   0.1482593), wk =   0.0138889
        k(   97) = (  -0.4166667  -0.3367877   0.0000000), wk =   0.0138889
        k(   98) = (   0.5000000  -0.1924501   0.0000000), wk =   0.0138889
        k(   99) = (  -0.4166667  -0.3367877  -0.0741297), wk =   0.0277778
        k(  100) = (   0.5000000  -0.1924501  -0.0741297), wk =   0.0277778
        k(  101) = (  -0.4166667  -0.3367877   0.1482593), wk =   0.0138889
        k(  102) = (   0.5000000  -0.1924501   0.1482593), wk =   0.0138889
        k(  103) = (   0.3333333   0.0000000   0.0000000), wk =   0.0069444
        k(  104) = (   0.3333333   0.0000000  -0.0741297), wk =   0.0138889
        k(  105) = (   0.3333333   0.0000000   0.1482593), wk =   0.0069444
        k(  106) = (  -0.2500000  -0.3367877   0.0000000), wk =   0.0138889
        k(  107) = (   0.4166667  -0.0481125   0.0000000), wk =   0.0138889
        k(  108) = (  -0.2500000  -0.3367877  -0.0741297), wk =   0.0277778
        k(  109) = (   0.4166667  -0.0481125  -0.0741297), wk =   0.0277778
        k(  110) = (  -0.2500000  -0.3367877   0.1482593), wk =   0.0138889
        k(  111) = (   0.4166667  -0.0481125   0.1482593), wk =   0.0138889
        k(  112) = (  -0.3333333  -0.3849002   0.0000000), wk =   0.0138889
        k(  113) = (   0.5000000  -0.0962250   0.0000000), wk =   0.0138889
        k(  114) = (  -0.3333333  -0.3849002  -0.0741297), wk =   0.0277778
        k(  115) = (   0.5000000  -0.0962250  -0.0741297), wk =   0.0277778
        k(  116) = (  -0.3333333  -0.3849002   0.1482593), wk =   0.0138889
        k(  117) = (   0.5000000  -0.0962250   0.1482593), wk =   0.0138889
        k(  118) = (  -0.4166667  -0.4330127   0.0000000), wk =   0.0138889
        k(  119) = (  -0.4166667  -0.4330127  -0.0741297), wk =   0.0277778
        k(  120) = (  -0.4166667  -0.4330127   0.1482593), wk =   0.0138889
        k(  121) = (   0.5000000  -0.0000000   0.0000000), wk =   0.0069444
        k(  122) = (   0.5000000  -0.0000000  -0.0741297), wk =   0.0138889
        k(  123) = (   0.5000000  -0.0000000   0.1482593), wk =   0.0069444
        k(  124) = (  -0.3333333  -0.4811252   0.0000000), wk =   0.0138889
        k(  125) = (   0.5833333  -0.0481125   0.0000000), wk =   0.0138889
        k(  126) = (  -0.3333333  -0.4811252  -0.0741297), wk =   0.0277778
        k(  127) = (   0.5833333  -0.0481125  -0.0741297), wk =   0.0277778
        k(  128) = (  -0.3333333  -0.4811252   0.1482593), wk =   0.0138889
        k(  129) = (   0.5833333  -0.0481125   0.1482593), wk =   0.0138889

                       cryst. coord.
        k(    1) = (   0.0000000   0.0000000   0.0000000), wk =   0.0034722
        k(    2) = (   0.0000000   0.0000000   0.2500000), wk =   0.0069444
        k(    3) = (   0.0000000   0.0000000  -0.5000000), wk =   0.0034722
        k(    4) = (   0.0000000   0.0833333   0.0000000), wk =   0.0069444
        k(    5) = (   0.0000000   0.0833333   0.2500000), wk =   0.0138889
        k(    6) = (   0.0000000   0.0833333  -0.5000000), wk =   0.0069444
        k(    7) = (   0.0000000   0.1666667   0.0000000), wk =   0.0069444
        k(    8) = (   0.0000000   0.1666667   0.2500000), wk =   0.0138889
        k(    9) = (   0.0000000   0.1666667  -0.5000000), wk =   0.0069444
        k(   10) = (   0.0000000   0.2500000   0.0000000), wk =   0.0069444
        k(   11) = (   0.0000000   0.2500000   0.2500000), wk =   0.0138889
        k(   12) = (   0.0000000   0.2500000  -0.5000000), wk =   0.0069444
        k(   13) = (   0.0000000   0.3333333   0.0000000), wk =   0.0069444
        k(   14) = (   0.0000000   0.3333333   0.2500000), wk =   0.0138889
        k(   15) = (   0.0000000   0.3333333  -0.5000000), wk =   0.0069444
        k(   16) = (   0.0000000   0.4166667   0.0000000), wk =   0.0069444
        k(   17) = (   0.0000000   0.4166667   0.2500000), wk =   0.0138889
        k(   18) = (   0.0000000   0.4166667  -0.5000000), wk =   0.0069444
        k(   19) = (   0.0000000  -0.5000000   0.0000000), wk =   0.0034722
        k(   20) = (   0.0000000  -0.5000000   0.2500000), wk =   0.0069444
        k(   21) = (   0.0000000  -0.5000000  -0.5000000), wk =   0.0034722
        k(   22) = (   0.0833333   0.0833333   0.0000000), wk =   0.0138889
        k(   23) = (   0.0833333   0.0833333   0.2500000), wk =   0.0277778
        k(   24) = (   0.0833333   0.0833333  -0.5000000), wk =   0.0138889
        k(   25) = (   0.0833333   0.1666667   0.0000000), wk =   0.0138889
        k(   26) = (   0.0833333   0.1666667   0.2500000), wk =   0.0277778
        k(   27) = (   0.0833333   0.1666667  -0.5000000), wk =   0.0138889
        k(   28) = (   0.0833333   0.2500000   0.0000000), wk =   0.0138889
        k(   29) = (   0.0833333   0.2500000   0.2500000), wk =   0.0277778
        k(   30) = (   0.0833333   0.2500000  -0.5000000), wk =   0.0138889
        k(   31) = (   0.0833333   0.3333333   0.0000000), wk =   0.0138889
        k(   32) = (   0.0833333   0.3333333   0.2500000), wk =   0.0277778
        k(   33) = (   0.0833333   0.3333333  -0.5000000), wk =   0.0138889
        k(   34) = (   0.0833333   0.4166667   0.0000000), wk =   0.0138889
        k(   35) = (   0.0833333   0.4166667   0.2500000), wk =   0.0277778
        k(   36) = (   0.0833333   0.4166667  -0.5000000), wk =   0.0138889
        k(   37) = (   0.1666667   0.1666667   0.0000000), wk =   0.0138889
        k(   38) = (   0.1666667   0.1666667   0.2500000), wk =   0.0277778
        k(   39) = (   0.1666667   0.1666667  -0.5000000), wk =   0.0138889
        k(   40) = (   0.1666667   0.2500000   0.0000000), wk =   0.0138889
        k(   41) = (   0.1666667   0.2500000   0.2500000), wk =   0.0277778
        k(   42) = (   0.1666667   0.2500000  -0.5000000), wk =   0.0138889
        k(   43) = (   0.1666667   0.3333333   0.0000000), wk =   0.0138889
        k(   44) = (   0.1666667   0.3333333   0.2500000), wk =   0.0277778
        k(   45) = (   0.1666667   0.3333333  -0.5000000), wk =   0.0138889
        k(   46) = (   0.1666667   0.4166667   0.0000000), wk =   0.0069444
        k(   47) = (   0.1666667   0.4166667   0.2500000), wk =   0.0138889
        k(   48) = (   0.1666667   0.4166667  -0.5000000), wk =   0.0069444
        k(   49) = (   0.2500000   0.2500000   0.0000000), wk =   0.0138889
        k(   50) = (   0.2500000   0.2500000   0.2500000), wk =   0.0277778
        k(   51) = (   0.2500000   0.2500000  -0.5000000), wk =   0.0138889
        k(   52) = (   0.2500000   0.3333333   0.0000000), wk =   0.0138889
        k(   53) = (   0.2500000   0.3333333   0.2500000), wk =   0.0277778
        k(   54) = (   0.2500000   0.3333333  -0.5000000), wk =   0.0138889
        k(   55) = (   0.3333333   0.3333333   0.0000000), wk =   0.0069444
        k(   56) = (   0.3333333   0.3333333   0.2500000), wk =   0.0138889
        k(   57) = (   0.3333333   0.3333333  -0.5000000), wk =   0.0069444
        k(   58) = (  -0.0833333  -0.0000000   0.0000000), wk =   0.0138889
        k(   59) = (  -0.0833333  -0.0000000  -0.2500000), wk =   0.0277778
        k(   60) = (  -0.0833333  -0.0000000   0.5000000), wk =   0.0138889
        k(   61) = (  -0.1666667  -0.0000000   0.0000000), wk =   0.0138889
        k(   62) = (  -0.1666667  -0.0000000  -0.2500000), wk =   0.0277778
        k(   63) = (  -0.1666667  -0.0000000   0.5000000), wk =   0.0138889
        k(   64) = (  -0.2500000   0.0000000   0.0000000), wk =   0.0138889
        k(   65) = (  -0.2500000   0.0000000  -0.2500000), wk =   0.0277778
        k(   66) = (  -0.2500000   0.0000000   0.5000000), wk =   0.0138889
        k(   67) = (  -0.3333333  -0.0000000   0.0000000), wk =   0.0138889
        k(   68) = (  -0.3333333  -0.0000000  -0.2500000), wk =   0.0277778
        k(   69) = (  -0.3333333  -0.0000000   0.5000000), wk =   0.0138889
        k(   70) = (  -0.4166667   0.0000000   0.0000000), wk =   0.0138889
        k(   71) = (  -0.4166667   0.0000000  -0.2500000), wk =   0.0277778
        k(   72) = (  -0.4166667   0.0000000   0.5000000), wk =   0.0138889
        k(   73) = (   0.5000000   0.0000000   0.0000000), wk =   0.0069444
        k(   74) = (   0.5000000   0.0000000  -0.2500000), wk =   0.0138889
        k(   75) = (   0.5000000   0.0000000   0.5000000), wk =   0.0069444
        k(   76) = (   0.1666667  -0.0833333   0.0000000), wk =   0.0069444
        k(   77) = (   0.1666667  -0.0833333  -0.2500000), wk =   0.0138889
        k(   78) = (   0.1666667  -0.0833333   0.5000000), wk =   0.0069444
        k(   79) = (  -0.1666667  -0.0833333   0.0000000), wk =   0.0138889
        k(   80) = (   0.2500000  -0.1666667   0.0000000), wk =   0.0138889
        k(   81) = (  -0.1666667  -0.0833333  -0.2500000), wk =   0.0277778
        k(   82) = (   0.2500000  -0.1666667  -0.2500000), wk =   0.0277778
        k(   83) = (  -0.1666667  -0.0833333   0.5000000), wk =   0.0138889
        k(   84) = (   0.2500000  -0.1666667   0.5000000), wk =   0.0138889
        k(   85) = (  -0.2500000  -0.0833333   0.0000000), wk =   0.0138889
        k(   86) = (   0.3333333  -0.2500000   0.0000000), wk =   0.0138889
        k(   87) = (  -0.2500000  -0.0833333  -0.2500000), wk =   0.0277778
        k(   88) = (   0.3333333  -0.2500000  -0.2500000), wk =   0.0277778
        k(   89) = (  -0.2500000  -0.0833333   0.5000000), wk =   0.0138889
        k(   90) = (   0.3333333  -0.2500000   0.5000000), wk =   0.0138889
        k(   91) = (  -0.3333333  -0.0833333   0.0000000), wk =   0.0138889
        k(   92) = (   0.4166667  -0.3333333   0.0000000), wk =   0.0138889
        k(   93) = (  -0.3333333  -0.0833333  -0.2500000), wk =   0.0277778
        k(   94) = (   0.4166667  -0.3333333  -0.2500000), wk =   0.0277778
        k(   95) = (  -0.3333333  -0.0833333   0.5000000), wk =   0.0138889
        k(   96) = (   0.4166667  -0.3333333   0.5000000), wk =   0.0138889
        k(   97) = (  -0.4166667  -0.0833333   0.0000000), wk =   0.0138889
        k(   98) = (   0.5000000  -0.4166667   0.0000000), wk =   0.0138889
        k(   99) = (  -0.4166667  -0.0833333  -0.2500000), wk =   0.0277778
        k(  100) = (   0.5000000  -0.4166667  -0.2500000), wk =   0.0277778
        k(  101) = (  -0.4166667  -0.0833333   0.5000000), wk =   0.0138889
        k(  102) = (   0.5000000  -0.4166667   0.5000000), wk =   0.0138889
        k(  103) = (   0.3333333  -0.1666667   0.0000000), wk =   0.0069444
        k(  104) = (   0.3333333  -0.1666667  -0.2500000), wk =   0.0138889
        k(  105) = (   0.3333333  -0.1666667   0.5000000), wk =   0.0069444
        k(  106) = (  -0.2500000  -0.1666667   0.0000000), wk =   0.0138889
        k(  107) = (   0.4166667  -0.2500000   0.0000000), wk =   0.0138889
        k(  108) = (  -0.2500000  -0.1666667  -0.2500000), wk =   0.0277778
        k(  109) = (   0.4166667  -0.2500000  -0.2500000), wk =   0.0277778
        k(  110) = (  -0.2500000  -0.1666667   0.5000000), wk =   0.0138889
        k(  111) = (   0.4166667  -0.2500000   0.5000000), wk =   0.0138889
        k(  112) = (  -0.3333333  -0.1666667   0.0000000), wk =   0.0138889
        k(  113) = (   0.5000000  -0.3333333   0.0000000), wk =   0.0138889
        k(  114) = (  -0.3333333  -0.1666667  -0.2500000), wk =   0.0277778
        k(  115) = (   0.5000000  -0.3333333  -0.2500000), wk =   0.0277778
        k(  116) = (  -0.3333333  -0.1666667   0.5000000), wk =   0.0138889
        k(  117) = (   0.5000000  -0.3333333   0.5000000), wk =   0.0138889
        k(  118) = (  -0.4166667  -0.1666667   0.0000000), wk =   0.0138889
        k(  119) = (  -0.4166667  -0.1666667  -0.2500000), wk =   0.0277778
        k(  120) = (  -0.4166667  -0.1666667   0.5000000), wk =   0.0138889
        k(  121) = (   0.5000000  -0.2500000   0.0000000), wk =   0.0069444
        k(  122) = (   0.5000000  -0.2500000  -0.2500000), wk =   0.0138889
        k(  123) = (   0.5000000  -0.2500000   0.5000000), wk =   0.0069444
        k(  124) = (  -0.3333333  -0.2500000   0.0000000), wk =   0.0138889
        k(  125) = (   0.5833333  -0.3333333   0.0000000), wk =   0.0138889
        k(  126) = (  -0.3333333  -0.2500000  -0.2500000), wk =   0.0277778
        k(  127) = (   0.5833333  -0.3333333  -0.2500000), wk =   0.0277778
        k(  128) = (  -0.3333333  -0.2500000   0.5000000), wk =   0.0138889
        k(  129) = (   0.5833333  -0.3333333   0.5000000), wk =   0.0138889

     Dense  grid:    34301 G-vectors     FFT dimensions: (  30,  30,  96)

     Smooth grid:    12031 G-vectors     FFT dimensions: (  20,  20,  72)

     Dynamical RAM for                 wfc:       0.28 MB

     Dynamical RAM for     wfc (w. buffer):      36.04 MB

     Dynamical RAM for           str. fact:       0.52 MB

     Dynamical RAM for           local pot:       0.00 MB

     Dynamical RAM for          nlocal pot:       0.74 MB

     Dynamical RAM for                qrad:       0.44 MB

     Dynamical RAM for          rho,v,vnew:       3.55 MB

     Dynamical RAM for               rhoin:       1.18 MB

     Dynamical RAM for            rho*nmix:       8.37 MB

     Dynamical RAM for           G-vectors:       2.05 MB

     Dynamical RAM for          h,s,v(r/c):       0.03 MB

     Dynamical RAM for          <psi|beta>:       0.01 MB

     Dynamical RAM for                 psi:       0.55 MB

     Dynamical RAM for                hpsi:       0.55 MB

     Dynamical RAM for                spsi:       0.55 MB

     Dynamical RAM for      wfcinit/wfcrot:       0.75 MB

     Dynamical RAM for           addusdens:      24.60 MB

     Dynamical RAM for          addusforce:      28.00 MB

     Dynamical RAM for         addusstress:      26.17 MB

     Estimated static dynamical RAM per process >      57.24 MB

     Estimated max dynamical RAM per process >      85.24 MB

     Check: negative core charge=   -0.000010

     Initial potential from superposition of free atoms

     starting charge   15.99983, renormalised to   16.00000
     Starting wfcs are   16 randomized atomic wfcs

     total cpu time spent up to now is        9.1 secs

     Self-consistent Calculation

     iteration #  1     ecut=    45.00 Ry     beta= 0.70
     Davidson diagonalization with overlap
     ethr =  1.00E-02,  avg # of iterations =  2.8

     total cpu time spent up to now is       22.2 secs

     total energy              =     -49.61556691 Ry
     estimated scf accuracy    <       0.39216084 Ry

     iteration #  2     ecut=    45.00 Ry     beta= 0.70
     Davidson diagonalization with overlap
     ethr =  2.45E-03,  avg # of iterations =  2.5

     total cpu time spent up to now is       35.7 secs

     total energy              =     -49.66539298 Ry
     estimated scf accuracy    <       0.00443249 Ry

     iteration #  3     ecut=    45.00 Ry     beta= 0.70
     Davidson diagonalization with overlap
     ethr =  2.77E-05,  avg # of iterations =  6.8

     total cpu time spent up to now is       53.8 secs

     total energy              =     -49.66440128 Ry
     estimated scf accuracy    <       0.00030695 Ry

     iteration #  4     ecut=    45.00 Ry     beta= 0.70
     Davidson diagonalization with overlap
     c_bands:  1 eigenvalues not converged
     c_bands:  1 eigenvalues not converged
     c_bands:  1 eigenvalues not converged
     ethr =  1.92E-06,  avg # of iterations =  3.9

     total cpu time spent up to now is       70.8 secs

     total energy              =     -49.66437773 Ry
     estimated scf accuracy    <       0.00000269 Ry

     iteration #  5     ecut=    45.00 Ry     beta= 0.70
     Davidson diagonalization with overlap
     ethr =  1.68E-08,  avg # of iterations =  2.9

     total cpu time spent up to now is       83.6 secs

     total energy              =     -49.66437868 Ry
     estimated scf accuracy    <       0.00000005 Ry

     iteration #  6     ecut=    45.00 Ry     beta= 0.70
     Davidson diagonalization with overlap
     ethr =  3.09E-10,  avg # of iterations =  2.8

     total cpu time spent up to now is       95.6 secs

     total energy              =     -49.66437863 Ry
     estimated scf accuracy    <          1.1E-09 Ry

     iteration #  7     ecut=    45.00 Ry     beta= 0.70
     Davidson diagonalization with overlap
     ethr =  6.71E-12,  avg # of iterations =  2.8

     total cpu time spent up to now is      105.6 secs

     End of self-consistent calculation

          k = 0.0000 0.0000 0.0000 (  1497 PWs)   bands (ev):

   -14.5708 -14.5244  -2.9976  -2.4233   1.8836   1.8851   1.8879   1.8894
     7.9625  13.2390  13.2446  13.2457

     occupation numbers 
     1.0000   1.0000   1.0121   1.0176   0.9479   0.9478   0.9475   0.9474
     0.0045  -0.0054  -0.0054  -0.0054

          k = 0.0000 0.0000 0.0741 (  1480 PWs)   bands (ev):

   -14.5640 -14.5312  -2.9201  -2.5149   1.8838   1.8849   1.8881   1.8892
     8.3273  10.6700  13.2400  13.2447

     occupation numbers 
     1.0000   1.0000   1.0128   1.0166   0.9479   0.9478   0.9475   0.9474
    -0.0133  -0.0283  -0.0054  -0.0054

          k = 0.0000 0.0000-0.1483 (  1450 PWs)   bands (ev):

   -14.5476 -14.5476  -2.7244  -2.7244   1.8844   1.8844   1.8887   1.8887
     9.3270   9.3270  13.2423  13.2425

     occupation numbers 
     1.0000   1.0000   1.0146   1.0146   0.9478   0.9478   0.9474   0.9474
    -0.0347  -0.0347  -0.0054  -0.0054

          k = 0.0000 0.0962 0.0000 (  1493 PWs)   bands (ev):

   -14.4070 -14.3613  -2.7999  -2.2305   1.2329   1.2361   1.5501   1.5526
     8.1750  11.6947  13.2940  13.3196

     occupation numbers 
     1.0000   1.0000   1.0139   1.0196   0.9966   0.9964   0.9758   0.9756
    -0.0067  -0.0170  -0.0052  -0.0051

          k = 0.0000 0.0962 0.0741 (  1489 PWs)   bands (ev):

   -14.4004 -14.3680  -2.7230  -2.3212   1.2334   1.2356   1.5505   1.5523
     8.5379  10.8683  13.3049  13.3179

     occupation numbers 
     1.0000   1.0000   1.0146   1.0187   0.9965   0.9964   0.9758   0.9757
    -0.0209  -0.0261  -0.0051  -0.0051

          k = 0.0000 0.0962-0.1483 (  1486 PWs)   bands (ev):

   -14.3842 -14.3842  -2.5289  -2.5289   1.2345   1.2345   1.5514   1.5514
     9.5325   9.5325  13.3132  13.3132

     occupation numbers 
     1.0000   1.0000   1.0165   1.0165   0.9965   0.9965   0.9757   0.9757
    -0.0354  -0.0354  -0.0051  -0.0051

          k = 0.0000 0.1925 0.0000 (  1503 PWs)   bands (ev):

   -13.9177 -13.8737  -2.2117  -1.6575  -0.4040  -0.3971   0.7595   0.7632
     8.8132  12.2622  13.2117  13.2668

     occupation numbers 
     1.0000   1.0000   1.0198   1.0261   1.0355   1.0355   1.0181   1.0180
    -0.0280  -0.0117  -0.0056  -0.0053

          k = 0.0000 0.1925 0.0741 (  1496 PWs)   bands (ev):

   -13.9113 -13.8802  -2.1366  -1.7456  -0.4030  -0.3981   0.7600   0.7627
     9.1698  11.4542  13.2369  13.2638

     occupation numbers 
     1.0000   1.0000   1.0207   1.0251   1.0355   1.0355   1.0181   1.0180
    -0.0334  -0.0195  -0.0054  -0.0053

          k = 0.0000 0.1925-0.1483 (  1490 PWs)   bands (ev):

   -13.8958 -13.8958  -1.9475  -1.9475  -0.4006  -0.4006   0.7614   0.7614
    10.1464  10.1464  13.2538  13.2538

     occupation numbers 
     1.0000   1.0000   1.0228   1.0228   1.0355   1.0355   1.0180   1.0180
    -0.0332  -0.0332  -0.0054  -0.0054

          k = 0.0000 0.2887 0.0000 (  1497 PWs)   bands (ev):

   -13.1086 -13.0674  -2.5005  -2.4887  -1.2508  -0.7249  -0.1183  -0.1138
     9.8742  12.0058  12.1276  12.9174

     occupation numbers 
     1.0000   1.0000   1.0168   1.0169   1.0304   1.0345   1.0347   1.0347
    -0.0349  -0.0140  -0.0129  -0.0071

          k = 0.0000 0.2887 0.0741 (  1502 PWs)   bands (ev):

   -13.1026 -13.0735  -2.4988  -2.4905  -1.1793  -0.8081  -0.1177  -0.1144
    10.2137  11.9550  12.0960  12.5910

     occupation numbers 
     1.0000   1.0000   1.0168   1.0169   1.0311   1.0341   1.0347   1.0347
    -0.0327  -0.0144  -0.0131  -0.0092

          k = 0.0000 0.2887-0.1483 (  1508 PWs)   bands (ev):

   -13.0881 -13.0881  -2.4946  -2.4946  -0.9995  -0.9995  -0.1160  -0.1160
    11.1220  11.1221  12.1586  12.1588

     occupation numbers 
     1.0000   1.0000   1.0168   1.0168   1.0327   1.0327   1.0347   1.0347
    -0.0232  -0.0232  -0.0126  -0.0126

          k = 0.0000 0.3849 0.0000 (  1504 PWs)   bands (ev):

   -11.9919 -11.9546  -4.7009  -4.6839  -0.8501  -0.8451   0.0364   0.5131
     9.6731   9.8937  11.3440  12.5793

     occupation numbers 
     1.0000   1.0000   1.0029   1.0030   1.0338   1.0338   1.0335   1.0254
    -0.0354  -0.0348  -0.0208  -0.0093

          k = 0.0000 0.3849 0.0741 (  1509 PWs)   bands (ev):

   -11.9865 -11.9601  -4.6984  -4.6864  -0.8494  -0.8458   0.1017   0.4384
     9.6957   9.8529  11.6845  12.5786

     occupation numbers 
     1.0000   1.0000   1.0029   1.0030   1.0338   1.0338   1.0328   1.0272
    -0.0354  -0.0349  -0.0171  -0.0093

          k = 0.0000 0.3849-0.1483 (  1502 PWs)   bands (ev):

   -11.9733 -11.9733  -4.6924  -4.6924  -0.8476  -0.8476   0.2654   0.2654
     9.7663   9.7663  12.4545  12.4547

     occupation numbers 
     1.0000   1.0000   1.0029   1.0029   1.0338   1.0338   1.0305   1.0305
    -0.0352  -0.0352  -0.0102  -0.0102

          k = 0.0000 0.4811 0.0000 (  1508 PWs)   bands (ev):

   -10.5991 -10.5667  -6.7969  -6.7751  -1.3220  -1.3168   1.5021   1.8771
     7.5165   7.7949  12.3260  12.3841

     occupation numbers 
     1.0000   1.0000   1.0003   1.0003   1.0297   1.0298   0.9793   0.9485
     0.0357   0.0150  -0.0112  -0.0107

          k = 0.0000 0.4811 0.0741 (  1510 PWs)   bands (ev):

   -10.5944 -10.5715  -6.7937  -6.7783  -1.3213  -1.3175   1.5547   1.8197
     7.5502   7.7472  12.3363  12.3778

     occupation numbers 
     1.0000   1.0000   1.0003   1.0003   1.0297   1.0297   0.9755   0.9538
     0.0330   0.0182  -0.0111  -0.0108

          k = 0.0000 0.4811-0.1483 (  1500 PWs)   bands (ev):

   -10.5830 -10.5830  -6.7860  -6.7860  -1.3194  -1.3194   1.6848   1.6848
     7.6418   7.6418  12.3586  12.3586

     occupation numbers 
     1.0000   1.0000   1.0003   1.0003   1.0297   1.0297   0.9653   0.9653
     0.0259   0.0259  -0.0109  -0.0109

          k = 0.0000-0.5774 0.0000 (  1508 PWs)   bands (ev):

    -9.3370  -9.3217  -8.2879  -8.2757  -1.4841  -1.4787   2.4371   2.6131
     6.4462   6.6892  12.2435  12.3112

     occupation numbers 
     1.0000   1.0000   1.0000   1.0000   1.0280   1.0281   0.8870   0.8637
     0.1583   0.1244  -0.0119  -0.0113

          k = 0.0000-0.5774 0.0741 (  1520 PWs)   bands (ev):

    -9.3348  -9.3240  -8.2862  -8.2775  -1.4833  -1.4795   2.4645   2.5891
     6.4712   6.6430  12.2534  12.3011

     occupation numbers 
     1.0000   1.0000   1.0000   1.0000   1.0280   1.0280   0.8835   0.8670
     0.1546   0.1306  -0.0118  -0.0114

          k = 0.0000-0.5774-0.1483 (  1520 PWs)   bands (ev):

    -9.3293  -9.3293  -8.2820  -8.2820  -1.4814  -1.4814   2.5284   2.5284
     6.5466   6.5466  12.2772  12.2772

     occupation numbers 
     1.0000   1.0000   1.0000   1.0000   1.0280   1.0280   0.8752   0.8752
     0.1439   0.1439  -0.0116  -0.0116

          k = 0.0833 0.1443 0.0000 (  1505 PWs)   bands (ev):

   -14.0805 -14.0359  -2.4068  -1.8475   0.2008   0.2041   0.8745   0.8766
     8.6009  12.0790  13.5690  13.6206

     occupation numbers 
     1.0000   1.0000   1.0178   1.0239   1.0315   1.0315   1.0138   1.0137
    -0.0227  -0.0133  -0.0040  -0.0039

          k = 0.0833 0.1443 0.0741 (  1502 PWs)   bands (ev):

   -14.0740 -14.0425  -2.3311  -1.9364   0.2013   0.2036   0.8748   0.8763
     8.9598  11.2628  13.5931  13.6177

     occupation numbers 
     1.0000   1.0000   1.0186   1.0229   1.0315   1.0315   1.0138   1.0138
    -0.0307  -0.0217  -0.0040  -0.0039

          k = 0.0833 0.1443-0.1483 (  1500 PWs)   bands (ev):

   -14.0584 -14.0584  -2.1403  -2.1403   0.2025   0.2025   0.8756   0.8756
     9.9432   9.9432  13.6093  13.6093

     occupation numbers 
     1.0000   1.0000   1.0206   1.0206   1.0315   1.0315   1.0138   1.0138
    -0.0345  -0.0345  -0.0039  -0.0039

          k = 0.0833 0.2406 0.0000 (  1500 PWs)   bands (ev):

   -13.4313 -13.3890  -1.6312  -1.5089  -1.5012  -1.0934  -0.1211  -0.1167
     9.4521  12.7371  12.9069  13.0812

     occupation numbers 
     1.0000   1.0000   1.0264   1.0277   1.0278   1.0319   1.0347   1.0347
    -0.0352  -0.0082  -0.0072  -0.0062

          k = 0.0833 0.2406 0.0741 (  1503 PWs)   bands (ev):

   -13.4252 -13.3953  -1.5582  -1.5078  -1.5023  -1.1786  -0.1205  -0.1173
     9.8015  12.0239  12.9138  12.9961

     occupation numbers 
     1.0000   1.0000   1.0272   1.0277   1.0278   1.0311   1.0347   1.0347
    -0.0351  -0.0138  -0.0071  -0.0067

          k = 0.0833 0.2406-0.1483 (  1506 PWs)   bands (ev):

   -13.4103 -13.4103  -1.5051  -1.5051  -1.3745  -1.3745  -0.1189  -0.1189
    10.7568  10.7568  12.9491  12.9491

     occupation numbers 
     1.0000   1.0000   1.0278   1.0278   1.0292   1.0292   1.0347   1.0347
    -0.0274  -0.0274  -0.0069  -0.0069

          k = 0.0833 0.3368 0.0000 (  1514 PWs)   bands (ev):

   -12.4683 -12.4293  -3.5799  -3.5664  -1.0062  -1.0001  -0.5014  -0.0008
    10.7186  10.7224  10.8736  13.4378

     occupation numbers 
     1.0000   1.0000   1.0078   1.0079   1.0326   1.0327   1.0354   1.0339
    -0.0278  -0.0277  -0.0261  -0.0046

          k = 0.0833 0.3368 0.0741 (  1506 PWs)   bands (ev):

   -12.4626 -12.4351  -3.5779  -3.5684  -1.0053  -1.0010  -0.4331  -0.0797
    10.7094  10.8364  11.1008  13.1730

     occupation numbers 
     1.0000   1.0000   1.0079   1.0079   1.0326   1.0327   1.0354   1.0345
    -0.0279  -0.0265  -0.0235  -0.0057

          k = 0.0833 0.3368-0.1483 (  1504 PWs)   bands (ev):

   -12.4489 -12.4489  -3.5732  -3.5732  -1.0032  -1.0032  -0.2616  -0.2616
    10.7718  10.7718  12.0102  12.0102

     occupation numbers 
     1.0000   1.0000   1.0079   1.0079   1.0327   1.0327   1.0353   1.0353
    -0.0272  -0.0272  -0.0139  -0.0139

          k = 0.0833 0.4330 0.0000 (  1522 PWs)   bands (ev):

   -11.2103 -11.1757  -5.6994  -5.6805  -1.6402  -1.6332   0.9052   1.3387
     8.4785   8.7151  12.3871  13.1518

     occupation numbers 
     1.0000   1.0000   1.0010   1.0011   1.0263   1.0263   1.0126   0.9902
    -0.0189  -0.0258  -0.0107  -0.0058

          k = 0.0833 0.4330 0.0741 (  1517 PWs)   bands (ev):

   -11.2053 -11.1808  -5.6966  -5.6832  -1.6392  -1.6342   0.9651   1.2713
     8.5080   8.6756  12.6903  13.1574

     occupation numbers 
     1.0000   1.0000   1.0010   1.0011   1.0263   1.0263   1.0100   0.9943
    -0.0199  -0.0248  -0.0085  -0.0058

          k = 0.0833 0.4330-0.1483 (  1514 PWs)   bands (ev):

   -11.1931 -11.1931  -5.6899  -5.6899  -1.6367  -1.6367   1.1145   1.1145
     8.5870   8.5870  13.1363  13.1363

     occupation numbers 
     1.0000   1.0000   1.0010   1.0010   1.0263   1.0263   1.0030   1.0030
    -0.0223  -0.0223  -0.0059  -0.0059

          k = 0.0833 0.5292 0.0000 (  1524 PWs)   bands (ev):

    -9.7345  -9.7068  -7.6344  -7.6125  -1.9681  -1.9608   2.2860   2.5572
     6.7169   6.9614  12.9744  13.0512

     occupation numbers 
     1.0000   1.0000   1.0001   1.0001   1.0226   1.0226   0.9055   0.8713
     0.1208   0.0907  -0.0068  -0.0064

          k = 0.0833 0.5292 0.0741 (  1515 PWs)   bands (ev):

    -9.7304  -9.7108  -7.6312  -7.6158  -1.9670  -1.9619   2.3255   2.5175
     6.7448   6.9179  12.9857  13.0400

     occupation numbers 
     1.0000   1.0000   1.0001   1.0001   1.0226   1.0226   0.9008   0.8766
     0.1172   0.0958  -0.0067  -0.0064

          k = 0.0833 0.5292-0.1483 (  1524 PWs)   bands (ev):

    -9.7207  -9.7207  -7.6235  -7.6235  -1.9645  -1.9645   2.4214   2.4214
     6.8235   6.8235  13.0128  13.0128

     occupation numbers 
     1.0000   1.0000   1.0001   1.0001   1.0226   1.0226   0.8890   0.8890
     0.1072   0.1072  -0.0066  -0.0066

          k = 0.1667 0.2887 0.0000 (  1509 PWs)   bands (ev):

   -12.6281 -12.5886  -2.8374  -2.8312  -1.4784  -1.4739  -0.6833  -0.1750
    10.5142  11.1873  11.2898  13.6905

     occupation numbers 
     1.0000   1.0000   1.0135   1.0136   1.0281   1.0281   1.0347   1.0350
    -0.0299  -0.0225  -0.0214  -0.0036

          k = 0.1667 0.2887 0.0741 (  1516 PWs)   bands (ev):

   -12.6224 -12.5944  -2.8365  -2.8321  -1.4778  -1.4746  -0.6140  -0.2552
    10.8492  11.2022  11.2749  12.9696

     occupation numbers 
     1.0000   1.0000   1.0135   1.0136   1.0281   1.0281   1.0350   1.0353
    -0.0263  -0.0223  -0.0215  -0.0068

          k = 0.1667 0.2887-0.1483 (  1518 PWs)   bands (ev):

   -12.6085 -12.6085  -2.8343  -2.8343  -1.4762  -1.4762  -0.4400  -0.4400
    11.2381  11.2381  11.7641  11.7641

     occupation numbers 
     1.0000   1.0000   1.0136   1.0136   1.0281   1.0281   1.0354   1.0354
    -0.0219  -0.0219  -0.0163  -0.0163

          k = 0.1667 0.3849 0.0000 (  1517 PWs)   bands (ev):

   -11.5223 -11.4866  -4.5638  -4.5509  -2.5341  -2.5257   0.5888   1.0480
     9.2265   9.3730  11.9866  14.7634

     occupation numbers 
     1.0000   1.0000   1.0033   1.0034   1.0164   1.0165   1.0234   1.0062
    -0.0339  -0.0349  -0.0141  -0.0012

          k = 0.1667 0.3849 0.0741 (  1515 PWs)   bands (ev):

   -11.5172 -11.4919  -4.5619  -4.5528  -2.5329  -2.5269   0.6519   0.9762
     9.2467   9.3506  12.2955  14.1720

     occupation numbers 
     1.0000   1.0000   1.0033   1.0034   1.0165   1.0165   1.0216   1.0095
    -0.0341  -0.0348  -0.0114  -0.0023

          k = 0.1667 0.3849-0.1483 (  1524 PWs)   bands (ev):

   -11.5046 -11.5046  -4.5573  -4.5573  -2.5299  -2.5299   0.8097   0.8097
     9.2976   9.2976  13.1251  13.1252

     occupation numbers 
     1.0000   1.0000   1.0033   1.0033   1.0165   1.0165   1.0163   1.0163
    -0.0345  -0.0345  -0.0060  -0.0060

          k = 0.1667 0.4811 0.0000 (  1522 PWs)   bands (ev):

   -10.1494 -10.1186  -6.4708  -6.4514  -3.1108  -3.1001   2.0549   2.4207
     7.2975   7.4958  13.8374  14.8382

     occupation numbers 
     1.0000   1.0000   1.0004   1.0004   1.0112   1.0113   0.9310   0.8891
     0.0552   0.0375  -0.0031  -0.0011

          k = 0.1667 0.4811 0.0741 (  1525 PWs)   bands (ev):

   -10.1449 -10.1231  -6.4679  -6.4542  -3.1092  -3.1017   2.1062   2.3647
     7.3236   7.4641  14.0860  14.8434

     occupation numbers 
     1.0000   1.0000   1.0004   1.0004   1.0112   1.0113   0.9256   0.8960
     0.0527   0.0402  -0.0025  -0.0011

          k = 0.1667 0.4811-0.1483 (  1520 PWs)   bands (ev):

   -10.1341 -10.1341  -6.4611  -6.4611  -3.1055  -3.1055   2.2331   2.2331
     7.3910   7.3910  14.6733  14.6733

     occupation numbers 
     1.0000   1.0000   1.0004   1.0004   1.0112   1.0112   0.9116   0.9116
     0.0466   0.0466  -0.0013  -0.0013

          k = 0.1667 0.5774 0.0000 (  1527 PWs)   bands (ev):

    -8.9161  -8.9016  -7.8916  -7.8807  -3.2958  -3.2846   3.0349   3.2071
     6.2717   6.4058  14.7390  14.8825

     occupation numbers 
     1.0000   1.0000   1.0001   1.0001   1.0098   1.0099   0.8007   0.7722
     0.1847   0.1642  -0.0013  -0.0011

          k = 0.1667 0.5774 0.0741 (  1526 PWs)   bands (ev):

    -8.9140  -8.9037  -7.8900  -7.8824  -3.2942  -3.2862   3.0618   3.1838
     6.2842   6.3793  14.7575  14.8581

     occupation numbers 
     1.0000   1.0000   1.0001   1.0001   1.0098   1.0098   0.7964   0.7762
     0.1827   0.1682  -0.0012  -0.0011

          k = 0.1667 0.5774-0.1483 (  1532 PWs)   bands (ev):

    -8.9088  -8.9088  -7.8863  -7.8863  -3.2902  -3.2902   3.1247   3.1247
     6.3248   6.3248  14.8043  14.8043

     occupation numbers 
     1.0000   1.0000   1.0001   1.0001   1.0098   1.0098   0.7860   0.7860
     0.1764   0.1764  -0.0012  -0.0012

          k = 0.2500 0.4330 0.0000 (  1525 PWs)   bands (ev):

   -10.2967 -10.2651  -5.5978  -5.5884  -4.0098  -4.0026   1.9574   2.3524
     7.6214   7.7604  13.6353  15.3950

     occupation numbers 
     1.0000   1.0000   1.0012   1.0012   1.0055   1.0055   0.9409   0.8975
     0.0274   0.0173  -0.0038  -0.0006

          k = 0.2500 0.4330 0.0741 (  1530 PWs)   bands (ev):

   -10.2921 -10.2698  -5.5964  -5.5898  -4.0088  -4.0037   2.0123   2.2913
     7.6416   7.7399  13.8673  15.0917

     occupation numbers 
     1.0000   1.0000   1.0012   1.0012   1.0055   1.0055   0.9354   0.9048
     0.0259   0.0187  -0.0031  -0.0008

          k = 0.2500 0.4330-0.1483 (  1534 PWs)   bands (ev):

   -10.2810 -10.2810  -5.5931  -5.5931  -4.0063  -4.0063   2.1487   2.1487
     7.6906   7.6906  14.4509  14.4509

     occupation numbers 
     1.0000   1.0000   1.0012   1.0012   1.0055   1.0055   0.9210   0.9210
     0.0223   0.0223  -0.0017  -0.0017

          k = 0.2500 0.5292 0.0000 (  1531 PWs)   bands (ev):

    -8.8776  -8.8527  -7.0163  -7.0002  -4.7184  -4.7064   3.3975   3.6669
     6.1123   6.2453  15.5773  15.6500

     occupation numbers 
     1.0000   1.0000   1.0002   1.0002   1.0029   1.0029   0.7390   0.6893
     0.2102   0.1888  -0.0005  -0.0004

          k = 0.2500 0.5292 0.0741 (  1531 PWs)   bands (ev):

    -8.8740  -8.8564  -7.0139  -7.0026  -4.7166  -4.7082   3.4365   3.6272
     6.1297   6.2239  15.4116  15.5103

     occupation numbers 
     1.0000   1.0000   1.0002   1.0002   1.0029   1.0029   0.7320   0.6968
     0.2074   0.1922  -0.0006  -0.0005

          k = 0.2500 0.5292-0.1483 (  1544 PWs)   bands (ev):

    -8.8652  -8.8652  -7.0083  -7.0083  -4.7124  -4.7124   3.5315   3.5315
     6.1747   6.1747  15.3508  15.3508

     occupation numbers 
     1.0000   1.0000   1.0002   1.0002   1.0029   1.0029   0.7147   0.7147
     0.2000   0.2000  -0.0006  -0.0006

          k = 0.3333 0.5774 0.0000 (  1527 PWs)   bands (ev):

    -7.6662  -7.6539  -7.6538  -7.6415  -5.5992  -5.5991   4.7251   4.8814
     4.8815   5.0478  15.5111  15.5118

     occupation numbers 
     1.0001   1.0001   1.0001   1.0001   1.0012   1.0012   0.4756   0.4433
     0.4433   0.4092  -0.0005  -0.0005

          k = 0.3333 0.5774 0.0741 (  1530 PWs)   bands (ev):

    -7.6627  -7.6539  -7.6538  -7.6451  -5.5992  -5.5992   4.7703   4.8824
     4.8824   4.9984  15.3413  15.3417

     occupation numbers 
     1.0001   1.0001   1.0001   1.0001   1.0012   1.0012   0.4662   0.4431
     0.4431   0.4193  -0.0006  -0.0006

          k = 0.3333 0.5774-0.1483 (  1542 PWs)   bands (ev):

    -7.6547  -7.6547  -7.6532  -7.6532  -5.5992  -5.5992   4.8816   4.8816
     4.8839   4.8839  15.2089  15.2089

     occupation numbers 
     1.0001   1.0001   1.0001   1.0001   1.0012   1.0012   0.4432   0.4432
     0.4428   0.4428  -0.0007  -0.0007

          k =-0.0833-0.0481 0.0000 (  1493 PWs)   bands (ev):

   -14.4070 -14.3612  -2.7999  -2.2305   1.2357   1.2389   1.5472   1.5497
     8.1750  11.6946  13.2905  13.3160

     occupation numbers 
     1.0000   1.0000   1.0139   1.0196   0.9964   0.9962   0.9760   0.9758
    -0.0067  -0.0170  -0.0052  -0.0051

          k =-0.0833-0.0481-0.0741 (  1489 PWs)   bands (ev):

   -14.4004 -14.3680  -2.7230  -2.3212   1.2362   1.2385   1.5476   1.5493
     8.5379  10.8682  13.3014  13.3144

     occupation numbers 
     1.0000   1.0000   1.0146   1.0187   0.9964   0.9962   0.9760   0.9759
    -0.0209  -0.0261  -0.0051  -0.0051

          k =-0.0833-0.0481 0.1483 (  1486 PWs)   bands (ev):

   -14.3842 -14.3842  -2.5289  -2.5289   1.2373   1.2373   1.5484   1.5484
     9.5325   9.5325  13.3097  13.3097

     occupation numbers 
     1.0000   1.0000   1.0165   1.0165   0.9963   0.9963   0.9759   0.9759
    -0.0354  -0.0354  -0.0051  -0.0051

          k =-0.1667-0.0962 0.0000 (  1503 PWs)   bands (ev):

   -13.9177 -13.8737  -2.2117  -1.6576  -0.4018  -0.3950   0.7571   0.7608
     8.8132  12.2620  13.2095  13.2646

     occupation numbers 
     1.0000   1.0000   1.0198   1.0261   1.0355   1.0355   1.0182   1.0181
    -0.0280  -0.0117  -0.0056  -0.0053

          k =-0.1667-0.0962-0.0741 (  1496 PWs)   bands (ev):

   -13.9113 -13.8802  -2.1367  -1.7456  -0.4008  -0.3960   0.7576   0.7603
     9.1698  11.4541  13.2347  13.2620

     occupation numbers 
     1.0000   1.0000   1.0207   1.0251   1.0355   1.0355   1.0182   1.0181
    -0.0334  -0.0195  -0.0054  -0.0053

          k =-0.1667-0.0962 0.1483 (  1490 PWs)   bands (ev):

   -13.8958 -13.8958  -1.9476  -1.9476  -0.3984  -0.3984   0.7590   0.7590
    10.1463  10.1463  13.2516  13.2516

     occupation numbers 
     1.0000   1.0000   1.0228   1.0228   1.0355   1.0355   1.0181   1.0181
    -0.0332  -0.0332  -0.0054  -0.0054

          k =-0.2500-0.1443 0.0000 (  1497 PWs)   bands (ev):

   -13.1085 -13.0674  -2.4989  -2.4871  -1.2509  -0.7251  -0.1203  -0.1157
     9.8742  12.0064  12.1283  12.9147

     occupation numbers 
     1.0000   1.0000   1.0168   1.0169   1.0304   1.0345   1.0347   1.0347
    -0.0349  -0.0139  -0.0128  -0.0071

          k =-0.2500-0.1443-0.0741 (  1502 PWs)   bands (ev):

   -13.1026 -13.0735  -2.4972  -2.4889  -1.1794  -0.8083  -0.1196  -0.1164
    10.2137  11.9551  12.0969  12.5915

     occupation numbers 
     1.0000   1.0000   1.0168   1.0169   1.0311   1.0341   1.0347   1.0347
    -0.0327  -0.0144  -0.0131  -0.0092

          k =-0.2500-0.1443 0.1483 (  1508 PWs)   bands (ev):

   -13.0881 -13.0881  -2.4930  -2.4930  -0.9997  -0.9997  -0.1180  -0.1180
    11.1219  11.1219  12.1596  12.1596

     occupation numbers 
     1.0000   1.0000   1.0169   1.0169   1.0327   1.0327   1.0347   1.0347
    -0.0232  -0.0232  -0.0126  -0.0126

          k =-0.3333-0.1925 0.0000 (  1504 PWs)   bands (ev):

   -11.9919 -11.9545  -4.6997  -4.6827  -0.8518  -0.8468   0.0360   0.5127
     9.6743   9.8949  11.3440  12.5784

     occupation numbers 
     1.0000   1.0000   1.0029   1.0030   1.0338   1.0338   1.0335   1.0254
    -0.0354  -0.0348  -0.0208  -0.0093

          k =-0.3333-0.1925-0.0741 (  1509 PWs)   bands (ev):

   -11.9865 -11.9601  -4.6972  -4.6852  -0.8511  -0.8475   0.1013   0.4379
     9.6969   9.8541  11.6845  12.5776

     occupation numbers 
     1.0000   1.0000   1.0029   1.0030   1.0338   1.0338   1.0328   1.0272
    -0.0354  -0.0349  -0.0171  -0.0093

          k =-0.3333-0.1925 0.1483 (  1502 PWs)   bands (ev):

   -11.9733 -11.9733  -4.6912  -4.6912  -0.8493  -0.8493   0.2650   0.2650
     9.7674   9.7674  12.4540  12.4542

     occupation numbers 
     1.0000   1.0000   1.0029   1.0029   1.0338   1.0338   1.0305   1.0305
    -0.0352  -0.0352  -0.0102  -0.0102

          k =-0.4167-0.2406 0.0000 (  1508 PWs)   bands (ev):

   -10.5991 -10.5668  -6.7958  -6.7741  -1.3235  -1.3183   1.5013   1.8761
     7.5183   7.7967  12.3253  12.3834

     occupation numbers 
     1.0000   1.0000   1.0003   1.0003   1.0297   1.0297   0.9794   0.9486
     0.0356   0.0149  -0.0112  -0.0107

          k =-0.4167-0.2406-0.0741 (  1510 PWs)   bands (ev):

   -10.5944 -10.5715  -6.7926  -6.7773  -1.3228  -1.3190   1.5539   1.8188
     7.5520   7.7489  12.3356  12.3771

     occupation numbers 
     1.0000   1.0000   1.0003   1.0003   1.0297   1.0297   0.9755   0.9538
     0.0329   0.0181  -0.0111  -0.0108

          k =-0.4167-0.2406 0.1483 (  1500 PWs)   bands (ev):

   -10.5830 -10.5830  -6.7849  -6.7849  -1.3209  -1.3209   1.6840   1.6840
     7.6436   7.6436  12.3579  12.3579

     occupation numbers 
     1.0000   1.0000   1.0003   1.0003   1.0297   1.0297   0.9654   0.9654
     0.0257   0.0257  -0.0109  -0.0109

          k = 0.5000 0.2887 0.0000 (  1508 PWs)   bands (ev):

    -9.3379  -9.3226  -8.2861  -8.2738  -1.4855  -1.4802   2.4356   2.6117
     6.4485   6.6918  12.2428  12.3105

     occupation numbers 
     1.0000   1.0000   1.0000   1.0000   1.0280   1.0280   0.8872   0.8639
     0.1579   0.1241  -0.0119  -0.0113

          k = 0.5000 0.2887-0.0741 (  1520 PWs)   bands (ev):

    -9.3357  -9.3248  -8.2844  -8.2757  -1.4847  -1.4809   2.4629   2.5876
     6.4736   6.6456  12.2527  12.3005

     occupation numbers 
     1.0000   1.0000   1.0000   1.0000   1.0280   1.0280   0.8837   0.8672
     0.1543   0.1302  -0.0118  -0.0114

          k = 0.5000 0.2887 0.1483 (  1520 PWs)   bands (ev):

    -9.3302  -9.3302  -8.2801  -8.2801  -1.4828  -1.4828   2.5269   2.5269
     6.5491   6.5491  12.2765  12.2765

     occupation numbers 
     1.0000   1.0000   1.0000   1.0000   1.0280   1.0280   0.8754   0.8754
     0.1435   0.1435  -0.0116  -0.0116

          k = 0.1667 0.0000 0.0000 (  1505 PWs)   bands (ev):

   -14.0805 -14.0359  -2.4069  -1.8475   0.2035   0.2068   0.8716   0.8738
     8.6009  12.0790  13.5648  13.6165

     occupation numbers 
     1.0000   1.0000   1.0178   1.0239   1.0315   1.0314   1.0139   1.0139
    -0.0227  -0.0133  -0.0041  -0.0039

          k = 0.1667 0.0000-0.0741 (  1502 PWs)   bands (ev):

   -14.0740 -14.0425  -2.3312  -1.9364   0.2040   0.2063   0.8719   0.8735
     8.9598  11.2627  13.5887  13.6133

     occupation numbers 
     1.0000   1.0000   1.0186   1.0229   1.0315   1.0315   1.0139   1.0139
    -0.0307  -0.0217  -0.0040  -0.0039

          k = 0.1667 0.0000 0.1483 (  1500 PWs)   bands (ev):

   -14.0584 -14.0584  -2.1404  -2.1404   0.2052   0.2052   0.8727   0.8727
     9.9432   9.9432  13.6050  13.6051

     occupation numbers 
     1.0000   1.0000   1.0206   1.0206   1.0315   1.0315   1.0139   1.0139
    -0.0345  -0.0345  -0.0039  -0.0039

          k =-0.1667-0.1925 0.0000 (  1500 PWs)   bands (ev):

   -13.4313 -13.3890  -1.6312  -1.5077  -1.5000  -1.0934  -0.1225  -0.1180
     9.4521  12.7365  12.9073  13.0821

     occupation numbers 
     1.0000   1.0000   1.0264   1.0277   1.0278   1.0319   1.0347   1.0347
    -0.0352  -0.0082  -0.0072  -0.0062

          k = 0.2500-0.0481 0.0000 (  1500 PWs)   bands (ev):

   -13.4313 -13.3890  -1.6313  -1.5065  -1.4989  -1.0935  -0.1238  -0.1193
     9.4521  12.7368  12.9078  13.0822

     occupation numbers 
     1.0000   1.0000   1.0264   1.0277   1.0278   1.0319   1.0347   1.0347
    -0.0352  -0.0082  -0.0072  -0.0062

          k =-0.1667-0.1925-0.0741 (  1503 PWs)   bands (ev):

   -13.4252 -13.3953  -1.5583  -1.5066  -1.5011  -1.1787  -0.1218  -0.1187
     9.8014  12.0237  12.9142  12.9965

     occupation numbers 
     1.0000   1.0000   1.0272   1.0277   1.0278   1.0311   1.0347   1.0347
    -0.0351  -0.0138  -0.0071  -0.0067

          k = 0.2500-0.0481-0.0741 (  1503 PWs)   bands (ev):

   -13.4251 -13.3952  -1.5584  -1.5054  -1.5000  -1.1787  -0.1231  -0.1200
     9.8014  12.0236  12.9147  12.9970

     occupation numbers 
     1.0000   1.0000   1.0272   1.0278   1.0278   1.0311   1.0347   1.0347
    -0.0351  -0.0138  -0.0071  -0.0067

          k =-0.1667-0.1925 0.1483 (  1506 PWs)   bands (ev):

   -13.4103 -13.4103  -1.5039  -1.5039  -1.3745  -1.3745  -0.1203  -0.1203
    10.7568  10.7568  12.9495  12.9497

     occupation numbers 
     1.0000   1.0000   1.0278   1.0278   1.0292   1.0292   1.0347   1.0347
    -0.0274  -0.0274  -0.0069  -0.0069

          k = 0.2500-0.0481 0.1483 (  1506 PWs)   bands (ev):

   -13.4103 -13.4103  -1.5027  -1.5027  -1.3746  -1.3746  -0.1216  -0.1216
    10.7567  10.7567  12.9500  12.9501

     occupation numbers 
     1.0000   1.0000   1.0278   1.0278   1.0292   1.0292   1.0347   1.0347
    -0.0274  -0.0274  -0.0069  -0.0069

          k =-0.2500-0.2406 0.0000 (  1514 PWs)   bands (ev):

   -12.4682 -12.4293  -3.5787  -3.5652  -1.0077  -1.0016  -0.5016  -0.0010
    10.7193  10.7224  10.8742  13.4367

     occupation numbers 
     1.0000   1.0000   1.0079   1.0079   1.0326   1.0327   1.0354   1.0339
    -0.0278  -0.0277  -0.0260  -0.0046

          k = 0.3333-0.0962 0.0000 (  1514 PWs)   bands (ev):

   -12.4682 -12.4292  -3.5783  -3.5648  -1.0082  -1.0021  -0.5017  -0.0011
    10.7198  10.7224  10.8747  13.4361

     occupation numbers 
     1.0000   1.0000   1.0079   1.0079   1.0326   1.0327   1.0354   1.0339
    -0.0278  -0.0277  -0.0260  -0.0046

          k =-0.2500-0.2406-0.0741 (  1506 PWs)   bands (ev):

   -12.4626 -12.4350  -3.5767  -3.5672  -1.0068  -1.0025  -0.4333  -0.0799
    10.7099  10.8370  11.1011  13.1730

     occupation numbers 
     1.0000   1.0000   1.0079   1.0079   1.0326   1.0327   1.0354   1.0345
    -0.0279  -0.0265  -0.0235  -0.0057

          k = 0.3333-0.0962-0.0741 (  1506 PWs)   bands (ev):

   -12.4626 -12.4350  -3.5763  -3.5668  -1.0073  -1.0030  -0.4334  -0.0800
    10.7104  10.8375  11.1011  13.1726

     occupation numbers 
     1.0000   1.0000   1.0079   1.0079   1.0326   1.0327   1.0354   1.0345
    -0.0279  -0.0265  -0.0235  -0.0057

          k =-0.2500-0.2406 0.1483 (  1504 PWs)   bands (ev):

   -12.4489 -12.4489  -3.5720  -3.5720  -1.0047  -1.0047  -0.2618  -0.2618
    10.7724  10.7724  12.0104  12.0104

     occupation numbers 
     1.0000   1.0000   1.0079   1.0079   1.0327   1.0327   1.0353   1.0353
    -0.0272  -0.0272  -0.0139  -0.0139

          k = 0.3333-0.0962 0.1483 (  1504 PWs)   bands (ev):

   -12.4488 -12.4488  -3.5716  -3.5716  -1.0052  -1.0052  -0.2619  -0.2619
    10.7729  10.7729  12.0103  12.0103

     occupation numbers 
     1.0000   1.0000   1.0079   1.0079   1.0326   1.0326   1.0353   1.0353
    -0.0272  -0.0272  -0.0139  -0.0139

          k =-0.3333-0.2887 0.0000 (  1522 PWs)   bands (ev):

   -11.2103 -11.1757  -5.6983  -5.6794  -1.6416  -1.6346   0.9047   1.3382
     8.4797   8.7163  12.3872  13.1511

     occupation numbers 
     1.0000   1.0000   1.0010   1.0011   1.0263   1.0263   1.0126   0.9903
    -0.0190  -0.0258  -0.0107  -0.0058

          k = 0.4167-0.1443 0.0000 (  1522 PWs)   bands (ev):

   -11.2103 -11.1757  -5.6982  -5.6793  -1.6418  -1.6348   0.9046   1.3380
     8.4801   8.7167  12.3871  13.1507

     occupation numbers 
     1.0000   1.0000   1.0010   1.0011   1.0263   1.0263   1.0126   0.9903
    -0.0190  -0.0258  -0.0107  -0.0058

          k =-0.3333-0.2887-0.0741 (  1517 PWs)   bands (ev):

   -11.2053 -11.1808  -5.6956  -5.6822  -1.6406  -1.6357   0.9646   1.2708
     8.5092   8.6768  12.6903  13.1567

     occupation numbers 
     1.0000   1.0000   1.0010   1.0011   1.0263   1.0263   1.0101   0.9944
    -0.0199  -0.0248  -0.0085  -0.0058

          k = 0.4167-0.1443-0.0741 (  1517 PWs)   bands (ev):

   -11.2053 -11.1808  -5.6954  -5.6820  -1.6408  -1.6358   0.9645   1.2706
     8.5096   8.6772  12.6901  13.1563

     occupation numbers 
     1.0000   1.0000   1.0010   1.0011   1.0263   1.0263   1.0101   0.9944
    -0.0199  -0.0248  -0.0085  -0.0058

          k =-0.3333-0.2887 0.1483 (  1514 PWs)   bands (ev):

   -11.1931 -11.1931  -5.6889  -5.6889  -1.6381  -1.6381   1.1140   1.1140
     8.5882   8.5882  13.1358  13.1358

     occupation numbers 
     1.0000   1.0000   1.0010   1.0010   1.0263   1.0263   1.0030   1.0030
    -0.0224  -0.0224  -0.0059  -0.0059

          k = 0.4167-0.1443 0.1483 (  1514 PWs)   bands (ev):

   -11.1931 -11.1931  -5.6887  -5.6887  -1.6383  -1.6383   1.1138   1.1138
     8.5885   8.5885  13.1354  13.1354

     occupation numbers 
     1.0000   1.0000   1.0010   1.0010   1.0263   1.0263   1.0030   1.0030
    -0.0224  -0.0224  -0.0059  -0.0059

          k =-0.4167-0.3368 0.0000 (  1524 PWs)   bands (ev):

    -9.7348  -9.7070  -7.6331  -7.6113  -1.9695  -1.9622   2.2848   2.5559
     6.7189   6.9635  12.9737  13.0505

     occupation numbers 
     1.0000   1.0000   1.0001   1.0001   1.0225   1.0226   0.9056   0.8715
     0.1205   0.0904  -0.0068  -0.0064

          k = 0.5000-0.1925 0.0000 (  1524 PWs)   bands (ev):

    -9.7347  -9.7070  -7.6331  -7.6113  -1.9695  -1.9622   2.2847   2.5559
     6.7191   6.9637  12.9736  13.0504

     occupation numbers 
     1.0000   1.0000   1.0001   1.0001   1.0225   1.0226   0.9056   0.8715
     0.1205   0.0904  -0.0068  -0.0064

          k =-0.4167-0.3368-0.0741 (  1515 PWs)   bands (ev):

    -9.7307  -9.7111  -7.6300  -7.6145  -1.9684  -1.9632   2.3244   2.5162
     6.7468   6.9199  12.9850  13.0393

     occupation numbers 
     1.0000   1.0000   1.0001   1.0001   1.0226   1.0226   0.9009   0.8768
     0.1169   0.0955  -0.0067  -0.0064

          k = 0.5000-0.1925-0.0741 (  1515 PWs)   bands (ev):

    -9.7307  -9.7111  -7.6299  -7.6145  -1.9685  -1.9633   2.3243   2.5161
     6.7470   6.9201  12.9849  13.0392

     occupation numbers 
     1.0000   1.0000   1.0001   1.0001   1.0226   1.0226   0.9009   0.8768
     0.1169   0.0955  -0.0067  -0.0064

          k =-0.4167-0.3368 0.1483 (  1524 PWs)   bands (ev):

    -9.7209  -9.7209  -7.6223  -7.6223  -1.9658  -1.9658   2.4202   2.4202
     6.8256   6.8256  13.0122  13.0122

     occupation numbers 
     1.0000   1.0000   1.0001   1.0001   1.0226   1.0226   0.8891   0.8891
     0.1069   0.1069  -0.0066  -0.0066

          k = 0.5000-0.1925 0.1483 (  1524 PWs)   bands (ev):

    -9.7209  -9.7209  -7.6222  -7.6222  -1.9659  -1.9659   2.4201   2.4201
     6.8258   6.8258  13.0120  13.0120

     occupation numbers 
     1.0000   1.0000   1.0001   1.0001   1.0226   1.0226   0.8891   0.8891
     0.1069   0.1069  -0.0066  -0.0066

          k = 0.3333 0.0000 0.0000 (  1509 PWs)   bands (ev):

   -12.6281 -12.5886  -2.8354  -2.8292  -1.4807  -1.4761  -0.6835  -0.1752
    10.5142  11.1883  11.2908  13.6902

     occupation numbers 
     1.0000   1.0000   1.0135   1.0136   1.0280   1.0281   1.0347   1.0350
    -0.0299  -0.0225  -0.0213  -0.0036

          k = 0.3333 0.0000-0.0741 (  1516 PWs)   bands (ev):

   -12.6223 -12.5944  -2.8345  -2.8301  -1.4800  -1.4768  -0.6142  -0.2554
    10.8491  11.2032  11.2758  12.9694

     occupation numbers 
     1.0000   1.0000   1.0136   1.0136   1.0280   1.0281   1.0350   1.0353
    -0.0263  -0.0223  -0.0215  -0.0068

          k = 0.3333 0.0000 0.1483 (  1518 PWs)   bands (ev):

   -12.6084 -12.6084  -2.8323  -2.8323  -1.4784  -1.4784  -0.4402  -0.4402
    11.2391  11.2391  11.7639  11.7639

     occupation numbers 
     1.0000   1.0000   1.0136   1.0136   1.0281   1.0281   1.0354   1.0354
    -0.0219  -0.0219  -0.0163  -0.0163

          k =-0.2500-0.3368 0.0000 (  1517 PWs)   bands (ev):

   -11.5223 -11.4866  -4.5630  -4.5501  -2.5350  -2.5266   0.5886   1.0479
     9.2270   9.3734  11.9866  14.7638

     occupation numbers 
     1.0000   1.0000   1.0033   1.0034   1.0164   1.0165   1.0234   1.0062
    -0.0340  -0.0349  -0.0141  -0.0012

          k = 0.4167-0.0481 0.0000 (  1517 PWs)   bands (ev):

   -11.5223 -11.4866  -4.5621  -4.5492  -2.5361  -2.5276   0.5884   1.0476
     9.2279   9.3743  11.9866  15.0524

     occupation numbers 
     1.0000   1.0000   1.0033   1.0034   1.0164   1.0165   1.0235   1.0063
    -0.0340  -0.0349  -0.0141  -0.0009

          k =-0.2500-0.3368-0.0741 (  1515 PWs)   bands (ev):

   -11.5171 -11.4918  -4.5611  -4.5520  -2.5338  -2.5279   0.6517   0.9760
     9.2472   9.3510  12.2955  14.1720

     occupation numbers 
     1.0000   1.0000   1.0033   1.0034   1.0164   1.0165   1.0216   1.0096
    -0.0341  -0.0348  -0.0114  -0.0023

          k = 0.4167-0.0481-0.0741 (  1515 PWs)   bands (ev):

   -11.5171 -11.4918  -4.5602  -4.5511  -2.5348  -2.5289   0.6515   0.9757
     9.2481   9.3519  12.2954  14.1715

     occupation numbers 
     1.0000   1.0000   1.0033   1.0034   1.0164   1.0165   1.0216   1.0096
    -0.0341  -0.0348  -0.0114  -0.0023

          k =-0.2500-0.3368 0.1483 (  1524 PWs)   bands (ev):

   -11.5046 -11.5046  -4.5565  -4.5565  -2.5309  -2.5309   0.8095   0.8095
     9.2980   9.2980  13.1252  13.1252

     occupation numbers 
     1.0000   1.0000   1.0033   1.0033   1.0165   1.0165   1.0163   1.0163
    -0.0345  -0.0345  -0.0060  -0.0060

          k = 0.4167-0.0481 0.1483 (  1524 PWs)   bands (ev):

   -11.5045 -11.5045  -4.5557  -4.5557  -2.5319  -2.5319   0.8092   0.8092
     9.2989   9.2989  13.1249  13.1249

     occupation numbers 
     1.0000   1.0000   1.0034   1.0034   1.0165   1.0165   1.0163   1.0163
    -0.0345  -0.0345  -0.0060  -0.0060

          k =-0.3333-0.3849 0.0000 (  1522 PWs)   bands (ev):

   -10.1495 -10.1187  -6.4697  -6.4504  -3.1120  -3.1013   2.0543   2.4200
     7.2988   7.4969  13.8375  14.8375

     occupation numbers 
     1.0000   1.0000   1.0004   1.0004   1.0112   1.0113   0.9311   0.8891
     0.0551   0.0374  -0.0031  -0.0011

          k = 0.5000-0.0962 0.0000 (  1522 PWs)   bands (ev):

   -10.1494 -10.1186  -6.4695  -6.4501  -3.1123  -3.1016   2.0540   2.4197
     7.2994   7.4976  13.8374  14.8371

     occupation numbers 
     1.0000   1.0000   1.0004   1.0004   1.0112   1.0113   0.9311   0.8892
     0.0550   0.0373  -0.0031  -0.0011

          k =-0.3333-0.3849-0.0741 (  1525 PWs)   bands (ev):

   -10.1450 -10.1232  -6.4669  -6.4532  -3.1104  -3.1029   2.1056   2.3641
     7.3248   7.4652  14.0861  14.8427

     occupation numbers 
     1.0000   1.0000   1.0004   1.0004   1.0112   1.0113   0.9257   0.8961
     0.0526   0.0401  -0.0025  -0.0011

          k = 0.5000-0.0962-0.0741 (  1525 PWs)   bands (ev):

   -10.1450 -10.1232  -6.4667  -6.4530  -3.1107  -3.1032   2.1053   2.3637
     7.3254   7.4659  14.0859  14.8422

     occupation numbers 
     1.0000   1.0000   1.0004   1.0004   1.0112   1.0113   0.9257   0.8961
     0.0526   0.0400  -0.0025  -0.0011

          k =-0.3333-0.3849 0.1483 (  1520 PWs)   bands (ev):

   -10.1341 -10.1341  -6.4601  -6.4601  -3.1066  -3.1066   2.2325   2.2325
     7.3922   7.3922  14.6737  14.6738

     occupation numbers 
     1.0000   1.0000   1.0004   1.0004   1.0112   1.0112   0.9117   0.9117
     0.0465   0.0465  -0.0013  -0.0013

          k = 0.5000-0.0962 0.1483 (  1520 PWs)   bands (ev):

   -10.1341 -10.1341  -6.4598  -6.4598  -3.1070  -3.1070   2.2322   2.2322
     7.3928   7.3928  14.6729  14.6730

     occupation numbers 
     1.0000   1.0000   1.0004   1.0004   1.0112   1.0112   0.9117   0.9117
     0.0464   0.0464  -0.0013  -0.0013

          k =-0.4167-0.4330 0.0000 (  1527 PWs)   bands (ev):

    -8.9171  -8.9025  -7.8896  -7.8788  -3.2971  -3.2859   3.0333   3.2057
     6.2739   6.4081  14.7383  14.8818

     occupation numbers 
     1.0000   1.0000   1.0001   1.0001   1.0098   1.0098   0.8010   0.7725
     0.1843   0.1639  -0.0013  -0.0011

          k =-0.4167-0.4330-0.0741 (  1526 PWs)   bands (ev):

    -8.9149  -8.9046  -7.8881  -7.8805  -3.2955  -3.2875   3.0603   3.1824
     6.2864   6.3816  14.7567  14.8573

     occupation numbers 
     1.0000   1.0000   1.0001   1.0001   1.0098   1.0098   0.7966   0.7764
     0.1824   0.1678  -0.0012  -0.0011

          k =-0.4167-0.4330 0.1483 (  1532 PWs)   bands (ev):

    -8.9097  -8.9097  -7.8844  -7.8844  -3.2915  -3.2915   3.1232   3.1232
     6.3271   6.3271  14.8035  14.8035

     occupation numbers 
     1.0000   1.0000   1.0001   1.0001   1.0098   1.0098   0.7863   0.7863
     0.1761   0.1761  -0.0012  -0.0012

          k = 0.5000-0.0000 0.0000 (  1525 PWs)   bands (ev):

   -10.2966 -10.2651  -5.5963  -5.5869  -4.0115  -4.0042   1.9569   2.3518
     7.6227   7.7616  13.6353  15.3940

     occupation numbers 
     1.0000   1.0000   1.0012   1.0012   1.0055   1.0055   0.9409   0.8976
     0.0273   0.0172  -0.0038  -0.0006

          k = 0.5000-0.0000-0.0741 (  1530 PWs)   bands (ev):

   -10.2921 -10.2698  -5.5949  -5.5883  -4.0104  -4.0053   2.0117   2.2907
     7.6429   7.7411  13.8672  15.0908

     occupation numbers 
     1.0000   1.0000   1.0012   1.0012   1.0055   1.0055   0.9355   0.9049
     0.0258   0.0187  -0.0031  -0.0008

          k = 0.5000-0.0000 0.1483 (  1534 PWs)   bands (ev):

   -10.2810 -10.2810  -5.5916  -5.5916  -4.0079  -4.0079   2.1482   2.1482
     7.6919   7.6919  14.4506  14.4506

     occupation numbers 
     1.0000   1.0000   1.0012   1.0012   1.0055   1.0055   0.9211   0.9211
     0.0222   0.0222  -0.0017  -0.0017

          k =-0.3333-0.4811 0.0000 (  1531 PWs)   bands (ev):

    -8.8779  -8.8530  -7.0152  -6.9992  -4.7193  -4.7073   3.3968   3.6661
     6.1134   6.2463  15.5774  15.6498

     occupation numbers 
     1.0000   1.0000   1.0002   1.0002   1.0029   1.0029   0.7391   0.6895
     0.2100   0.1886  -0.0005  -0.0004

          k = 0.5833-0.0481 0.0000 (  1531 PWs)   bands (ev):

    -8.8779  -8.8530  -7.0147  -6.9986  -4.7197  -4.7077   3.3962   3.6656
     6.1142   6.2471  15.5773  15.6489

     occupation numbers 
     1.0000   1.0000   1.0002   1.0002   1.0029   1.0029   0.7392   0.6896
     0.2099   0.1885  -0.0005  -0.0004

          k =-0.3333-0.4811-0.0741 (  1531 PWs)   bands (ev):

    -8.8742  -8.8566  -7.0129  -7.0015  -4.7175  -4.7090   3.4358   3.6264
     6.1308   6.2248  15.4115  15.5101

     occupation numbers 
     1.0000   1.0000   1.0002   1.0002   1.0029   1.0029   0.7321   0.6970
     0.2072   0.1920  -0.0006  -0.0005

          k = 0.5833-0.0481-0.0741 (  1531 PWs)   bands (ev):

    -8.8743  -8.8567  -7.0124  -7.0010  -4.7180  -4.7095   3.4353   3.6259
     6.1316   6.2257  15.4115  15.5096

     occupation numbers 
     1.0000   1.0000   1.0002   1.0002   1.0029   1.0029   0.7322   0.6971
     0.2070   0.1919  -0.0006  -0.0005

          k =-0.3333-0.4811 0.1483 (  1544 PWs)   bands (ev):

    -8.8655  -8.8655  -7.0073  -7.0073  -4.7133  -4.7133   3.5308   3.5308
     6.1758   6.1758  15.3506  15.3507

     occupation numbers 
     1.0000   1.0000   1.0002   1.0002   1.0029   1.0029   0.7148   0.7148
     0.1999   0.1999  -0.0006  -0.0006

          k = 0.5833-0.0481 0.1483 (  1544 PWs)   bands (ev):

    -8.8655  -8.8655  -7.0067  -7.0067  -4.7138  -4.7138   3.5302   3.5302
     6.1766   6.1766  15.3502  15.3502

     occupation numbers 
     1.0000   1.0000   1.0002   1.0002   1.0029   1.0029   0.7149   0.7149
     0.1997   0.1997  -0.0006  -0.0006

     the Fermi energy is     4.6072 ev

!    total energy              =     -49.66437859 Ry
     estimated scf accuracy    <          1.8E-10 Ry
     smearing contrib. (-TS)   =       0.10682101 Ry
     internal energy E=F+TS    =     -49.77119960 Ry

     The total energy is F=E-TS. E is the sum of the following terms:
     one-electron contribution =     -30.10097220 Ry
     hartree contribution      =      21.89525668 Ry
     xc contribution           =     -18.56218155 Ry
     ewald contribution        =     -23.00330253 Ry

     convergence has been achieved in   7 iterations

     Forces acting on atoms (cartesian axes, Ry/au):

     atom    1 type  1   force =     0.00000000   -0.00032438    0.00000000
     atom    2 type  1   force =     0.00000000    0.00032438    0.00000000
     atom    3 type  1   force =     0.00000000    0.00032505    0.00000000
     atom    4 type  1   force =     0.00000000   -0.00032505    0.00000000
     The non-local contrib.  to forces
     atom    1 type  1   force =    -0.00000000   -0.00026971    0.00000000
     atom    2 type  1   force =     0.00000000    0.00026971    0.00000000
     atom    3 type  1   force =     0.00000000    0.00027105    0.00000000
     atom    4 type  1   force =     0.00000000   -0.00027105    0.00000000
     The ionic contribution  to forces
     atom    1 type  1   force =    -0.00000000   -0.00098176   -0.00000000
     atom    2 type  1   force =    -0.00000000    0.00098176    0.00000000
     atom    3 type  1   force =    -0.00000000    0.00098202   -0.00000000
     atom    4 type  1   force =     0.00000000   -0.00098202    0.00000000
     The local contribution  to forces
     atom    1 type  1   force =    -0.00000000    0.00091883    0.00000000
     atom    2 type  1   force =     0.00000000   -0.00091883    0.00000000
     atom    3 type  1   force =     0.00000000   -0.00092049    0.00000000
     atom    4 type  1   force =    -0.00000000    0.00092049    0.00000000
     The core correction contribution to forces
     atom    1 type  1   force =     0.00000000    0.00000829   -0.00000000
     atom    2 type  1   force =     0.00000000   -0.00000829   -0.00000000
     atom    3 type  1   force =     0.00000000   -0.00000755   -0.00000000
     atom    4 type  1   force =     0.00000000    0.00000755   -0.00000000
     The Hubbard contrib.    to forces
     atom    1 type  1   force =     0.00000000    0.00000000    0.00000000
     atom    2 type  1   force =     0.00000000    0.00000000    0.00000000
     atom    3 type  1   force =     0.00000000    0.00000000    0.00000000
     atom    4 type  1   force =     0.00000000    0.00000000    0.00000000
     The SCF correction term to forces
     atom    1 type  1   force =     0.00000000   -0.00000003    0.00000000
     atom    2 type  1   force =     0.00000000    0.00000003    0.00000000
     atom    3 type  1   force =     0.00000000    0.00000001    0.00000000
     atom    4 type  1   force =    -0.00000000   -0.00000001    0.00000000

     Total force =     0.000649     Total SCF correction =     0.000000


     Computing stress (Cartesian axis) and pressure

          total   stress  (Ry/bohr**3)                   (kbar)     P=      -20.28
  -0.00017960   0.00000000   0.00000000          -26.42        0.00        0.00
   0.00000000  -0.00017744   0.00000000            0.00      -26.10        0.00
   0.00000000   0.00000000  -0.00005655            0.00        0.00       -8.32

     kinetic stress (kbar)   9324.07      0.00      0.00
                                0.00   9323.62      0.00
                                0.00      0.00  10426.54

     local   stress (kbar) -26907.22     -0.00      0.00
                               -0.00 -26911.75      0.00
                                0.00      0.00  27263.52

     nonloc. stress (kbar)   1795.45     -0.00      0.00
                               -0.00   1795.60     -0.00
                                0.00      0.00   1659.32

     hartree stress (kbar)  10017.98      0.00     -0.00
                                0.00  10018.59     -0.00
                               -0.00     -0.00  -9192.02

     exc-cor stress (kbar)   -167.96      0.00      0.00
                                0.00   -167.93     -0.00
                                0.00     -0.00   -274.92

     corecor stress (kbar)  -2237.60     -0.00     -0.00
                               -0.00  -2237.63      0.00
                               -0.00      0.00  -2195.16

     ewald   stress (kbar)   8148.85     -0.00     -0.00
                               -0.00   8153.39      0.00
                               -0.00      0.00 -27695.59

     hubbard stress (kbar)      0.00      0.00      0.00
                                0.00      0.00      0.00
                                0.00      0.00      0.00

     DFT-D   stress (kbar)      0.00      0.00      0.00
                                0.00      0.00      0.00
                                0.00      0.00      0.00

     XDM     stress (kbar)      0.00      0.00      0.00
                                0.00      0.00      0.00
                                0.00      0.00      0.00

     dft-nl  stress (kbar)      0.00      0.00      0.00
                                0.00      0.00      0.00
                                0.00      0.00      0.00

     TS-vdW  stress (kbar)      0.00      0.00      0.00
                                0.00      0.00      0.00
                                0.00      0.00      0.00



     Writing output data file ./tmp/C.save/

     init_run     :      7.87s CPU      8.70s WALL (       1 calls)
     electrons    :     89.54s CPU     96.57s WALL (       1 calls)
     forces       :      1.42s CPU      1.69s WALL (       1 calls)
     stress       :      6.43s CPU      6.87s WALL (       1 calls)

     Called by init_run:
     wfcinit      :      5.81s CPU      6.16s WALL (       1 calls)
     wfcinit:atom :      0.18s CPU      0.19s WALL (     129 calls)
     wfcinit:wfcr :      4.63s CPU      4.93s WALL (     129 calls)
     potinit      :      0.55s CPU      0.72s WALL (       1 calls)
     hinit0       :      1.24s CPU      1.46s WALL (       1 calls)

     Called by electrons:
     c_bands      :     74.76s CPU     80.26s WALL (       7 calls)
     sum_band     :     12.34s CPU     13.64s WALL (       7 calls)
     v_of_rho     :      2.07s CPU      2.30s WALL (       8 calls)
     v_h          :      0.09s CPU      0.10s WALL (       8 calls)
     v_xc         :      2.54s CPU      2.91s WALL (      10 calls)
     newd         :      0.53s CPU      0.61s WALL (       8 calls)
     mix_rho      :      0.18s CPU      0.22s WALL (       7 calls)

     Called by c_bands:
     init_us_2    :      3.05s CPU      3.34s WALL (    2193 calls)
     cegterg      :     70.50s CPU     75.64s WALL (     903 calls)

     Called by sum_band:
     sum_band:wei :      0.07s CPU      0.07s WALL (       7 calls)
     sum_band:loo :     11.29s CPU     12.46s WALL (       7 calls)
     sum_band:buf :      0.12s CPU      0.13s WALL (     903 calls)
     sum_band:ini :      1.27s CPU      1.38s WALL (     903 calls)
     sum_band:cal :      1.00s CPU      1.10s WALL (     903 calls)
     sum_band:bec :      0.04s CPU      0.04s WALL (     903 calls)
     addusdens    :      0.51s CPU      0.58s WALL (       7 calls)
     addusd:skk   :      0.02s CPU      0.02s WALL (       7 calls)
     addusd:dgemm :      0.12s CPU      0.14s WALL (       7 calls)
     addusd:qvan2 :      0.22s CPU      0.24s WALL (       7 calls)

     Called by *egterg:
     cdiaghg      :      2.64s CPU      2.85s WALL (    4054 calls)
     cegterg:over :      3.63s CPU      3.91s WALL (    3151 calls)
     cegterg:upda :      2.34s CPU      2.55s WALL (    3151 calls)
     cegterg:last :      3.79s CPU      4.01s WALL (    2035 calls)
     h_psi        :     56.57s CPU     60.78s WALL (    4183 calls)
     s_psi        :      3.14s CPU      3.34s WALL (    4183 calls)
     g_psi        :      0.62s CPU      0.65s WALL (    3151 calls)

     Called by h_psi:
     h_psi:calbec :      3.82s CPU      4.14s WALL (    4183 calls)
     vloc_psi     :     48.45s CPU     51.98s WALL (    4183 calls)
     add_vuspsi   :      3.59s CPU      3.92s WALL (    4183 calls)

     General routines
     calbec       :      5.27s CPU      5.74s WALL (    5731 calls)
     fft          :      1.41s CPU      1.60s WALL (     127 calls)
     ffts         :      0.04s CPU      0.09s WALL (      15 calls)
     fftw         :     45.39s CPU     49.13s WALL (   75714 calls)
     interpolate  :      0.12s CPU      0.17s WALL (       8 calls)

     Parallel routines

     PWSCF        :   1m45.60s CPU   1m54.39s WALL


   This run was terminated on:  17:50:55  23May2022            

=------------------------------------------------------------------------------=
   JOB DONE.
=------------------------------------------------------------------------------=
