
     Program PWSCF v.6.7MaX starts on 23May2022 at 17:54:16 

     This program is part of the open-source Quantum ESPRESSO suite
     for quantum simulation of materials; please cite
         "P. Giannozzi et al., J. Phys.:Condens. Matter 21 395502 (2009);
         "P. Giannozzi et al., J. Phys.:Condens. Matter 29 465901 (2017);
          URL http://www.quantum-espresso.org", 
     in publications or presentations arising from this work. More details at
     http://www.quantum-espresso.org/quote

     Parallel version (MPI), running on     1 processors

     MPI processes distributed on     1 nodes
     Waiting for input...
     Reading input from standard input

     Current dimensions of program PWSCF are:
     Max number of different atomic species (ntypx) = 10
     Max number of k-points (npk) =  40000
     Max angular momentum in pseudopotentials (lmaxx) =  3

     Subspace diagonalization in iterative solution of the eigenvalue problem:
     a serial algorithm will be used


     G-vector sticks info
     --------------------
     sticks:   dense  smooth     PW     G-vecs:    dense   smooth      PW
     Sum         547     265     85                34301    12031    2223



     bravais-lattice index     =            4
     lattice parameter (alat)  =       4.6676  a.u.
     unit-cell volume          =     297.0066 (a.u.)^3
     number of atoms/cell      =            4
     number of atomic types    =            1
     number of electrons       =        16.00
     number of Kohn-Sham states=           12
     kinetic-energy cutoff     =      45.0000  Ry
     charge density cutoff     =     360.0000  Ry
     scf convergence threshold =      1.0E-09
     mixing beta               =       0.7000
     number of iterations used =            8  plain     mixing
     Exchange-correlation= PBE
                           (   1   4   3   4   0   0   0)

     celldm(1)=   4.667624  celldm(2)=   1.000000  celldm(3)=   3.372470
     celldm(4)=   0.000000  celldm(5)=   0.000000  celldm(6)=   0.000000

     crystal axes: (cart. coord. in units of alat)
               a(1) = (   1.000000   0.000000   0.000000 )  
               a(2) = (  -0.500000   0.866025   0.000000 )  
               a(3) = (   0.000000   0.000000   3.372470 )  

     reciprocal axes: (cart. coord. in units 2 pi/alat)
               b(1) = (  1.000000  0.577350 -0.000000 )  
               b(2) = (  0.000000  1.154701  0.000000 )  
               b(3) = (  0.000000 -0.000000  0.296519 )  


     PseudoPot. # 1 for C  read from file:
     /home/max/Desktop/graphite_DFT/Pseudo/C.pbe-n-rrkjus_psl.1.0.0.UPF
     MD5 check sum: 1fdd950c42eb37d8afe3dd2f8d12311e
     Pseudo is Ultrasoft + core correction, Zval =  4.0
     Generated using &quot;atomic&quot; code by A. Dal Corso  v.6.3MaX
     Using radial grid of 1073 points,  4 beta functions with: 
                l(1) =   0
                l(2) =   0
                l(3) =   1
                l(4) =   1
     Q(r) pseudized with 0 coefficients 


     atomic species   valence    mass     pseudopotential
        C              4.00    12.01100     C ( 1.00)

      8 Sym. Ops., with inversion, found ( 4 have fractional translation)


                                    s                        frac. trans.

      isym =  1     identity                                     

 cryst.   s( 1) = (     1          0          0      )
                  (     0          1          0      )
                  (     0          0          1      )

 cart.    s( 1) = (  1.0000000  0.0000000  0.0000000 )
                  (  0.0000000  1.0000000  0.0000000 )
                  (  0.0000000  0.0000000  1.0000000 )


      isym =  2     180 deg rotation - cart. axis [0,0,1]        

 cryst.   s( 2) = (    -1          0          0      )    f =(  0.0000000 )
                  (     0         -1          0      )       (  0.0000000 )
                  (     0          0          1      )       ( -0.5000000 )

 cart.    s( 2) = ( -1.0000000  0.0000000  0.0000000 )    f =(  0.0000000 )
                  (  0.0000000 -1.0000000  0.0000000 )       (  0.0000000 )
                  (  0.0000000  0.0000000  1.0000000 )       ( -1.6862348 )


      isym =  3     180 deg rotation - cart. axis [0,1,0]        

 cryst.   s( 3) = (    -1          0          0      )    f =(  0.0000000 )
                  (     1          1          0      )       (  0.0000000 )
                  (     0          0         -1      )       (  0.5000000 )

 cart.    s( 3) = ( -1.0000000  0.0000000  0.0000000 )    f =(  0.0000000 )
                  (  0.0000000  1.0000000  0.0000000 )       (  0.0000000 )
                  (  0.0000000  0.0000000 -1.0000000 )       (  1.6862348 )


      isym =  4     180 deg rotation - cart. axis [1,0,0]        

 cryst.   s( 4) = (     1          0          0      )
                  (    -1         -1          0      )
                  (     0          0         -1      )

 cart.    s( 4) = (  1.0000000  0.0000000  0.0000000 )
                  (  0.0000000 -1.0000000  0.0000000 )
                  (  0.0000000  0.0000000 -1.0000000 )


      isym =  5     inversion                                    

 cryst.   s( 5) = (    -1          0          0      )
                  (     0         -1          0      )
                  (     0          0         -1      )

 cart.    s( 5) = ( -1.0000000  0.0000000  0.0000000 )
                  (  0.0000000 -1.0000000  0.0000000 )
                  (  0.0000000  0.0000000 -1.0000000 )


      isym =  6     inv. 180 deg rotation - cart. axis [0,0,1]   

 cryst.   s( 6) = (     1          0          0      )    f =(  0.0000000 )
                  (     0          1          0      )       (  0.0000000 )
                  (     0          0         -1      )       (  0.5000000 )

 cart.    s( 6) = (  1.0000000  0.0000000  0.0000000 )    f =(  0.0000000 )
                  (  0.0000000  1.0000000  0.0000000 )       (  0.0000000 )
                  (  0.0000000  0.0000000 -1.0000000 )       (  1.6862348 )


      isym =  7     inv. 180 deg rotation - cart. axis [0,1,0]   

 cryst.   s( 7) = (     1          0          0      )    f =(  0.0000000 )
                  (    -1         -1          0      )       (  0.0000000 )
                  (     0          0          1      )       ( -0.5000000 )

 cart.    s( 7) = (  1.0000000  0.0000000  0.0000000 )    f =(  0.0000000 )
                  (  0.0000000 -1.0000000  0.0000000 )       (  0.0000000 )
                  (  0.0000000  0.0000000  1.0000000 )       ( -1.6862348 )


      isym =  8     inv. 180 deg rotation - cart. axis [1,0,0]   

 cryst.   s( 8) = (    -1          0          0      )
                  (     1          1          0      )
                  (     0          0          1      )

 cart.    s( 8) = ( -1.0000000  0.0000000  0.0000000 )
                  (  0.0000000  1.0000000  0.0000000 )
                  (  0.0000000  0.0000000  1.0000000 )


     point group D_2h (mmm) 
     there are  8 classes
     the character table:

       E     C2    C2'   C2''  i     s_v   s_v'  s_v''
A_g    1.00  1.00  1.00  1.00  1.00  1.00  1.00  1.00
B_1g   1.00  1.00 -1.00 -1.00  1.00  1.00 -1.00 -1.00
B_2g   1.00 -1.00  1.00 -1.00  1.00 -1.00  1.00 -1.00
B_3g   1.00 -1.00 -1.00  1.00  1.00 -1.00 -1.00  1.00
A_u    1.00  1.00  1.00  1.00 -1.00 -1.00 -1.00 -1.00
B_1u   1.00  1.00 -1.00 -1.00 -1.00 -1.00  1.00  1.00
B_2u   1.00 -1.00  1.00 -1.00 -1.00  1.00 -1.00  1.00
B_3u   1.00 -1.00 -1.00  1.00 -1.00  1.00  1.00 -1.00

     the symmetry operations in each class and the name of the first element:

     E        1
          identity                                               
     C2       2
          180 deg rotation - cart. axis [0,0,1]                  
     C2'      4
          180 deg rotation - cart. axis [1,0,0]                  
     C2''     3
          180 deg rotation - cart. axis [0,1,0]                  
     i        5
          inversion                                              
     s_v      6
          inv. 180 deg rotation - cart. axis [0,0,1]             
     s_v'     8
          inv. 180 deg rotation - cart. axis [1,0,0]             
     s_v''    7
          inv. 180 deg rotation - cart. axis [0,1,0]             

   Cartesian axes

     site n.     atom                  positions (alat units)
         1           C   tau(   1) = (   0.0000000   0.0000000   0.8431174  )
         2           C   tau(   2) = (   0.0000000   0.0000000   2.5293522  )
         3           C   tau(   3) = (   0.0000000   0.5772925   0.8431174  )
         4           C   tau(   4) = (   0.5000000   0.2887329   2.5293522  )

   Crystallographic axes

     site n.     atom                  positions (cryst. coord.)
         1           C   tau(   1) = (  0.0000000  0.0000000  0.2500000  )
         2           C   tau(   2) = (  0.0000000  0.0000000  0.7500000  )
         3           C   tau(   3) = (  0.3333000  0.6666000  0.2500000  )
         4           C   tau(   4) = (  0.6667000  0.3334000  0.7500000  )

     number of k points=   129  Methfessel-Paxton smearing, width (Ry)=  0.0700
                       cart. coord. in units 2pi/alat
        k(    1) = (   0.0000000   0.0000000   0.0000000), wk =   0.0034722
        k(    2) = (   0.0000000   0.0000000   0.0741297), wk =   0.0069444
        k(    3) = (   0.0000000   0.0000000  -0.1482593), wk =   0.0034722
        k(    4) = (   0.0000000   0.0962250   0.0000000), wk =   0.0069444
        k(    5) = (   0.0000000   0.0962250   0.0741297), wk =   0.0138889
        k(    6) = (   0.0000000   0.0962250  -0.1482593), wk =   0.0069444
        k(    7) = (   0.0000000   0.1924501   0.0000000), wk =   0.0069444
        k(    8) = (   0.0000000   0.1924501   0.0741297), wk =   0.0138889
        k(    9) = (   0.0000000   0.1924501  -0.1482593), wk =   0.0069444
        k(   10) = (   0.0000000   0.2886751   0.0000000), wk =   0.0069444
        k(   11) = (   0.0000000   0.2886751   0.0741297), wk =   0.0138889
        k(   12) = (   0.0000000   0.2886751  -0.1482593), wk =   0.0069444
        k(   13) = (   0.0000000   0.3849002   0.0000000), wk =   0.0069444
        k(   14) = (   0.0000000   0.3849002   0.0741297), wk =   0.0138889
        k(   15) = (   0.0000000   0.3849002  -0.1482593), wk =   0.0069444
        k(   16) = (   0.0000000   0.4811252   0.0000000), wk =   0.0069444
        k(   17) = (   0.0000000   0.4811252   0.0741297), wk =   0.0138889
        k(   18) = (   0.0000000   0.4811252  -0.1482593), wk =   0.0069444
        k(   19) = (   0.0000000  -0.5773503   0.0000000), wk =   0.0034722
        k(   20) = (   0.0000000  -0.5773503   0.0741297), wk =   0.0069444
        k(   21) = (   0.0000000  -0.5773503  -0.1482593), wk =   0.0034722
        k(   22) = (   0.0833333   0.1443376   0.0000000), wk =   0.0138889
        k(   23) = (   0.0833333   0.1443376   0.0741297), wk =   0.0277778
        k(   24) = (   0.0833333   0.1443376  -0.1482593), wk =   0.0138889
        k(   25) = (   0.0833333   0.2405626   0.0000000), wk =   0.0138889
        k(   26) = (   0.0833333   0.2405626   0.0741297), wk =   0.0277778
        k(   27) = (   0.0833333   0.2405626  -0.1482593), wk =   0.0138889
        k(   28) = (   0.0833333   0.3367877   0.0000000), wk =   0.0138889
        k(   29) = (   0.0833333   0.3367877   0.0741297), wk =   0.0277778
        k(   30) = (   0.0833333   0.3367877  -0.1482593), wk =   0.0138889
        k(   31) = (   0.0833333   0.4330127   0.0000000), wk =   0.0138889
        k(   32) = (   0.0833333   0.4330127   0.0741297), wk =   0.0277778
        k(   33) = (   0.0833333   0.4330127  -0.1482593), wk =   0.0138889
        k(   34) = (   0.0833333   0.5292377   0.0000000), wk =   0.0138889
        k(   35) = (   0.0833333   0.5292377   0.0741297), wk =   0.0277778
        k(   36) = (   0.0833333   0.5292377  -0.1482593), wk =   0.0138889
        k(   37) = (   0.1666667   0.2886751   0.0000000), wk =   0.0138889
        k(   38) = (   0.1666667   0.2886751   0.0741297), wk =   0.0277778
        k(   39) = (   0.1666667   0.2886751  -0.1482593), wk =   0.0138889
        k(   40) = (   0.1666667   0.3849002   0.0000000), wk =   0.0138889
        k(   41) = (   0.1666667   0.3849002   0.0741297), wk =   0.0277778
        k(   42) = (   0.1666667   0.3849002  -0.1482593), wk =   0.0138889
        k(   43) = (   0.1666667   0.4811252   0.0000000), wk =   0.0138889
        k(   44) = (   0.1666667   0.4811252   0.0741297), wk =   0.0277778
        k(   45) = (   0.1666667   0.4811252  -0.1482593), wk =   0.0138889
        k(   46) = (   0.1666667   0.5773503   0.0000000), wk =   0.0069444
        k(   47) = (   0.1666667   0.5773503   0.0741297), wk =   0.0138889
        k(   48) = (   0.1666667   0.5773503  -0.1482593), wk =   0.0069444
        k(   49) = (   0.2500000   0.4330127   0.0000000), wk =   0.0138889
        k(   50) = (   0.2500000   0.4330127   0.0741297), wk =   0.0277778
        k(   51) = (   0.2500000   0.4330127  -0.1482593), wk =   0.0138889
        k(   52) = (   0.2500000   0.5292377   0.0000000), wk =   0.0138889
        k(   53) = (   0.2500000   0.5292377   0.0741297), wk =   0.0277778
        k(   54) = (   0.2500000   0.5292377  -0.1482593), wk =   0.0138889
        k(   55) = (   0.3333333   0.5773503   0.0000000), wk =   0.0069444
        k(   56) = (   0.3333333   0.5773503   0.0741297), wk =   0.0138889
        k(   57) = (   0.3333333   0.5773503  -0.1482593), wk =   0.0069444
        k(   58) = (  -0.0833333  -0.0481125   0.0000000), wk =   0.0138889
        k(   59) = (  -0.0833333  -0.0481125  -0.0741297), wk =   0.0277778
        k(   60) = (  -0.0833333  -0.0481125   0.1482593), wk =   0.0138889
        k(   61) = (  -0.1666667  -0.0962250   0.0000000), wk =   0.0138889
        k(   62) = (  -0.1666667  -0.0962250  -0.0741297), wk =   0.0277778
        k(   63) = (  -0.1666667  -0.0962250   0.1482593), wk =   0.0138889
        k(   64) = (  -0.2500000  -0.1443376   0.0000000), wk =   0.0138889
        k(   65) = (  -0.2500000  -0.1443376  -0.0741297), wk =   0.0277778
        k(   66) = (  -0.2500000  -0.1443376   0.1482593), wk =   0.0138889
        k(   67) = (  -0.3333333  -0.1924501   0.0000000), wk =   0.0138889
        k(   68) = (  -0.3333333  -0.1924501  -0.0741297), wk =   0.0277778
        k(   69) = (  -0.3333333  -0.1924501   0.1482593), wk =   0.0138889
        k(   70) = (  -0.4166667  -0.2405626   0.0000000), wk =   0.0138889
        k(   71) = (  -0.4166667  -0.2405626  -0.0741297), wk =   0.0277778
        k(   72) = (  -0.4166667  -0.2405626   0.1482593), wk =   0.0138889
        k(   73) = (   0.5000000   0.2886751   0.0000000), wk =   0.0069444
        k(   74) = (   0.5000000   0.2886751  -0.0741297), wk =   0.0138889
        k(   75) = (   0.5000000   0.2886751   0.1482593), wk =   0.0069444
        k(   76) = (   0.1666667   0.0000000   0.0000000), wk =   0.0069444
        k(   77) = (   0.1666667   0.0000000  -0.0741297), wk =   0.0138889
        k(   78) = (   0.1666667   0.0000000   0.1482593), wk =   0.0069444
        k(   79) = (  -0.1666667  -0.1924501   0.0000000), wk =   0.0138889
        k(   80) = (   0.2500000  -0.0481125   0.0000000), wk =   0.0138889
        k(   81) = (  -0.1666667  -0.1924501  -0.0741297), wk =   0.0277778
        k(   82) = (   0.2500000  -0.0481125  -0.0741297), wk =   0.0277778
        k(   83) = (  -0.1666667  -0.1924501   0.1482593), wk =   0.0138889
        k(   84) = (   0.2500000  -0.0481125   0.1482593), wk =   0.0138889
        k(   85) = (  -0.2500000  -0.2405626   0.0000000), wk =   0.0138889
        k(   86) = (   0.3333333  -0.0962250   0.0000000), wk =   0.0138889
        k(   87) = (  -0.2500000  -0.2405626  -0.0741297), wk =   0.0277778
        k(   88) = (   0.3333333  -0.0962250  -0.0741297), wk =   0.0277778
        k(   89) = (  -0.2500000  -0.2405626   0.1482593), wk =   0.0138889
        k(   90) = (   0.3333333  -0.0962250   0.1482593), wk =   0.0138889
        k(   91) = (  -0.3333333  -0.2886751   0.0000000), wk =   0.0138889
        k(   92) = (   0.4166667  -0.1443376   0.0000000), wk =   0.0138889
        k(   93) = (  -0.3333333  -0.2886751  -0.0741297), wk =   0.0277778
        k(   94) = (   0.4166667  -0.1443376  -0.0741297), wk =   0.0277778
        k(   95) = (  -0.3333333  -0.2886751   0.1482593), wk =   0.0138889
        k(   96) = (   0.4166667  -0.1443376   0.1482593), wk =   0.0138889
        k(   97) = (  -0.4166667  -0.3367877   0.0000000), wk =   0.0138889
        k(   98) = (   0.5000000  -0.1924501   0.0000000), wk =   0.0138889
        k(   99) = (  -0.4166667  -0.3367877  -0.0741297), wk =   0.0277778
        k(  100) = (   0.5000000  -0.1924501  -0.0741297), wk =   0.0277778
        k(  101) = (  -0.4166667  -0.3367877   0.1482593), wk =   0.0138889
        k(  102) = (   0.5000000  -0.1924501   0.1482593), wk =   0.0138889
        k(  103) = (   0.3333333   0.0000000   0.0000000), wk =   0.0069444
        k(  104) = (   0.3333333   0.0000000  -0.0741297), wk =   0.0138889
        k(  105) = (   0.3333333   0.0000000   0.1482593), wk =   0.0069444
        k(  106) = (  -0.2500000  -0.3367877   0.0000000), wk =   0.0138889
        k(  107) = (   0.4166667  -0.0481125   0.0000000), wk =   0.0138889
        k(  108) = (  -0.2500000  -0.3367877  -0.0741297), wk =   0.0277778
        k(  109) = (   0.4166667  -0.0481125  -0.0741297), wk =   0.0277778
        k(  110) = (  -0.2500000  -0.3367877   0.1482593), wk =   0.0138889
        k(  111) = (   0.4166667  -0.0481125   0.1482593), wk =   0.0138889
        k(  112) = (  -0.3333333  -0.3849002   0.0000000), wk =   0.0138889
        k(  113) = (   0.5000000  -0.0962250   0.0000000), wk =   0.0138889
        k(  114) = (  -0.3333333  -0.3849002  -0.0741297), wk =   0.0277778
        k(  115) = (   0.5000000  -0.0962250  -0.0741297), wk =   0.0277778
        k(  116) = (  -0.3333333  -0.3849002   0.1482593), wk =   0.0138889
        k(  117) = (   0.5000000  -0.0962250   0.1482593), wk =   0.0138889
        k(  118) = (  -0.4166667  -0.4330127   0.0000000), wk =   0.0138889
        k(  119) = (  -0.4166667  -0.4330127  -0.0741297), wk =   0.0277778
        k(  120) = (  -0.4166667  -0.4330127   0.1482593), wk =   0.0138889
        k(  121) = (   0.5000000  -0.0000000   0.0000000), wk =   0.0069444
        k(  122) = (   0.5000000  -0.0000000  -0.0741297), wk =   0.0138889
        k(  123) = (   0.5000000  -0.0000000   0.1482593), wk =   0.0069444
        k(  124) = (  -0.3333333  -0.4811252   0.0000000), wk =   0.0138889
        k(  125) = (   0.5833333  -0.0481125   0.0000000), wk =   0.0138889
        k(  126) = (  -0.3333333  -0.4811252  -0.0741297), wk =   0.0277778
        k(  127) = (   0.5833333  -0.0481125  -0.0741297), wk =   0.0277778
        k(  128) = (  -0.3333333  -0.4811252   0.1482593), wk =   0.0138889
        k(  129) = (   0.5833333  -0.0481125   0.1482593), wk =   0.0138889

                       cryst. coord.
        k(    1) = (   0.0000000   0.0000000   0.0000000), wk =   0.0034722
        k(    2) = (   0.0000000   0.0000000   0.2500000), wk =   0.0069444
        k(    3) = (   0.0000000   0.0000000  -0.5000000), wk =   0.0034722
        k(    4) = (   0.0000000   0.0833333   0.0000000), wk =   0.0069444
        k(    5) = (   0.0000000   0.0833333   0.2500000), wk =   0.0138889
        k(    6) = (   0.0000000   0.0833333  -0.5000000), wk =   0.0069444
        k(    7) = (   0.0000000   0.1666667   0.0000000), wk =   0.0069444
        k(    8) = (   0.0000000   0.1666667   0.2500000), wk =   0.0138889
        k(    9) = (   0.0000000   0.1666667  -0.5000000), wk =   0.0069444
        k(   10) = (   0.0000000   0.2500000   0.0000000), wk =   0.0069444
        k(   11) = (   0.0000000   0.2500000   0.2500000), wk =   0.0138889
        k(   12) = (   0.0000000   0.2500000  -0.5000000), wk =   0.0069444
        k(   13) = (   0.0000000   0.3333333   0.0000000), wk =   0.0069444
        k(   14) = (   0.0000000   0.3333333   0.2500000), wk =   0.0138889
        k(   15) = (   0.0000000   0.3333333  -0.5000000), wk =   0.0069444
        k(   16) = (   0.0000000   0.4166667   0.0000000), wk =   0.0069444
        k(   17) = (   0.0000000   0.4166667   0.2500000), wk =   0.0138889
        k(   18) = (   0.0000000   0.4166667  -0.5000000), wk =   0.0069444
        k(   19) = (   0.0000000  -0.5000000   0.0000000), wk =   0.0034722
        k(   20) = (   0.0000000  -0.5000000   0.2500000), wk =   0.0069444
        k(   21) = (   0.0000000  -0.5000000  -0.5000000), wk =   0.0034722
        k(   22) = (   0.0833333   0.0833333   0.0000000), wk =   0.0138889
        k(   23) = (   0.0833333   0.0833333   0.2500000), wk =   0.0277778
        k(   24) = (   0.0833333   0.0833333  -0.5000000), wk =   0.0138889
        k(   25) = (   0.0833333   0.1666667   0.0000000), wk =   0.0138889
        k(   26) = (   0.0833333   0.1666667   0.2500000), wk =   0.0277778
        k(   27) = (   0.0833333   0.1666667  -0.5000000), wk =   0.0138889
        k(   28) = (   0.0833333   0.2500000   0.0000000), wk =   0.0138889
        k(   29) = (   0.0833333   0.2500000   0.2500000), wk =   0.0277778
        k(   30) = (   0.0833333   0.2500000  -0.5000000), wk =   0.0138889
        k(   31) = (   0.0833333   0.3333333   0.0000000), wk =   0.0138889
        k(   32) = (   0.0833333   0.3333333   0.2500000), wk =   0.0277778
        k(   33) = (   0.0833333   0.3333333  -0.5000000), wk =   0.0138889
        k(   34) = (   0.0833333   0.4166667   0.0000000), wk =   0.0138889
        k(   35) = (   0.0833333   0.4166667   0.2500000), wk =   0.0277778
        k(   36) = (   0.0833333   0.4166667  -0.5000000), wk =   0.0138889
        k(   37) = (   0.1666667   0.1666667   0.0000000), wk =   0.0138889
        k(   38) = (   0.1666667   0.1666667   0.2500000), wk =   0.0277778
        k(   39) = (   0.1666667   0.1666667  -0.5000000), wk =   0.0138889
        k(   40) = (   0.1666667   0.2500000   0.0000000), wk =   0.0138889
        k(   41) = (   0.1666667   0.2500000   0.2500000), wk =   0.0277778
        k(   42) = (   0.1666667   0.2500000  -0.5000000), wk =   0.0138889
        k(   43) = (   0.1666667   0.3333333   0.0000000), wk =   0.0138889
        k(   44) = (   0.1666667   0.3333333   0.2500000), wk =   0.0277778
        k(   45) = (   0.1666667   0.3333333  -0.5000000), wk =   0.0138889
        k(   46) = (   0.1666667   0.4166667   0.0000000), wk =   0.0069444
        k(   47) = (   0.1666667   0.4166667   0.2500000), wk =   0.0138889
        k(   48) = (   0.1666667   0.4166667  -0.5000000), wk =   0.0069444
        k(   49) = (   0.2500000   0.2500000   0.0000000), wk =   0.0138889
        k(   50) = (   0.2500000   0.2500000   0.2500000), wk =   0.0277778
        k(   51) = (   0.2500000   0.2500000  -0.5000000), wk =   0.0138889
        k(   52) = (   0.2500000   0.3333333   0.0000000), wk =   0.0138889
        k(   53) = (   0.2500000   0.3333333   0.2500000), wk =   0.0277778
        k(   54) = (   0.2500000   0.3333333  -0.5000000), wk =   0.0138889
        k(   55) = (   0.3333333   0.3333333   0.0000000), wk =   0.0069444
        k(   56) = (   0.3333333   0.3333333   0.2500000), wk =   0.0138889
        k(   57) = (   0.3333333   0.3333333  -0.5000000), wk =   0.0069444
        k(   58) = (  -0.0833333  -0.0000000   0.0000000), wk =   0.0138889
        k(   59) = (  -0.0833333  -0.0000000  -0.2500000), wk =   0.0277778
        k(   60) = (  -0.0833333  -0.0000000   0.5000000), wk =   0.0138889
        k(   61) = (  -0.1666667  -0.0000000   0.0000000), wk =   0.0138889
        k(   62) = (  -0.1666667  -0.0000000  -0.2500000), wk =   0.0277778
        k(   63) = (  -0.1666667  -0.0000000   0.5000000), wk =   0.0138889
        k(   64) = (  -0.2500000   0.0000000   0.0000000), wk =   0.0138889
        k(   65) = (  -0.2500000   0.0000000  -0.2500000), wk =   0.0277778
        k(   66) = (  -0.2500000   0.0000000   0.5000000), wk =   0.0138889
        k(   67) = (  -0.3333333  -0.0000000   0.0000000), wk =   0.0138889
        k(   68) = (  -0.3333333  -0.0000000  -0.2500000), wk =   0.0277778
        k(   69) = (  -0.3333333  -0.0000000   0.5000000), wk =   0.0138889
        k(   70) = (  -0.4166667   0.0000000   0.0000000), wk =   0.0138889
        k(   71) = (  -0.4166667   0.0000000  -0.2500000), wk =   0.0277778
        k(   72) = (  -0.4166667   0.0000000   0.5000000), wk =   0.0138889
        k(   73) = (   0.5000000   0.0000000   0.0000000), wk =   0.0069444
        k(   74) = (   0.5000000   0.0000000  -0.2500000), wk =   0.0138889
        k(   75) = (   0.5000000   0.0000000   0.5000000), wk =   0.0069444
        k(   76) = (   0.1666667  -0.0833333   0.0000000), wk =   0.0069444
        k(   77) = (   0.1666667  -0.0833333  -0.2500000), wk =   0.0138889
        k(   78) = (   0.1666667  -0.0833333   0.5000000), wk =   0.0069444
        k(   79) = (  -0.1666667  -0.0833333   0.0000000), wk =   0.0138889
        k(   80) = (   0.2500000  -0.1666667   0.0000000), wk =   0.0138889
        k(   81) = (  -0.1666667  -0.0833333  -0.2500000), wk =   0.0277778
        k(   82) = (   0.2500000  -0.1666667  -0.2500000), wk =   0.0277778
        k(   83) = (  -0.1666667  -0.0833333   0.5000000), wk =   0.0138889
        k(   84) = (   0.2500000  -0.1666667   0.5000000), wk =   0.0138889
        k(   85) = (  -0.2500000  -0.0833333   0.0000000), wk =   0.0138889
        k(   86) = (   0.3333333  -0.2500000   0.0000000), wk =   0.0138889
        k(   87) = (  -0.2500000  -0.0833333  -0.2500000), wk =   0.0277778
        k(   88) = (   0.3333333  -0.2500000  -0.2500000), wk =   0.0277778
        k(   89) = (  -0.2500000  -0.0833333   0.5000000), wk =   0.0138889
        k(   90) = (   0.3333333  -0.2500000   0.5000000), wk =   0.0138889
        k(   91) = (  -0.3333333  -0.0833333   0.0000000), wk =   0.0138889
        k(   92) = (   0.4166667  -0.3333333   0.0000000), wk =   0.0138889
        k(   93) = (  -0.3333333  -0.0833333  -0.2500000), wk =   0.0277778
        k(   94) = (   0.4166667  -0.3333333  -0.2500000), wk =   0.0277778
        k(   95) = (  -0.3333333  -0.0833333   0.5000000), wk =   0.0138889
        k(   96) = (   0.4166667  -0.3333333   0.5000000), wk =   0.0138889
        k(   97) = (  -0.4166667  -0.0833333   0.0000000), wk =   0.0138889
        k(   98) = (   0.5000000  -0.4166667   0.0000000), wk =   0.0138889
        k(   99) = (  -0.4166667  -0.0833333  -0.2500000), wk =   0.0277778
        k(  100) = (   0.5000000  -0.4166667  -0.2500000), wk =   0.0277778
        k(  101) = (  -0.4166667  -0.0833333   0.5000000), wk =   0.0138889
        k(  102) = (   0.5000000  -0.4166667   0.5000000), wk =   0.0138889
        k(  103) = (   0.3333333  -0.1666667   0.0000000), wk =   0.0069444
        k(  104) = (   0.3333333  -0.1666667  -0.2500000), wk =   0.0138889
        k(  105) = (   0.3333333  -0.1666667   0.5000000), wk =   0.0069444
        k(  106) = (  -0.2500000  -0.1666667   0.0000000), wk =   0.0138889
        k(  107) = (   0.4166667  -0.2500000   0.0000000), wk =   0.0138889
        k(  108) = (  -0.2500000  -0.1666667  -0.2500000), wk =   0.0277778
        k(  109) = (   0.4166667  -0.2500000  -0.2500000), wk =   0.0277778
        k(  110) = (  -0.2500000  -0.1666667   0.5000000), wk =   0.0138889
        k(  111) = (   0.4166667  -0.2500000   0.5000000), wk =   0.0138889
        k(  112) = (  -0.3333333  -0.1666667   0.0000000), wk =   0.0138889
        k(  113) = (   0.5000000  -0.3333333   0.0000000), wk =   0.0138889
        k(  114) = (  -0.3333333  -0.1666667  -0.2500000), wk =   0.0277778
        k(  115) = (   0.5000000  -0.3333333  -0.2500000), wk =   0.0277778
        k(  116) = (  -0.3333333  -0.1666667   0.5000000), wk =   0.0138889
        k(  117) = (   0.5000000  -0.3333333   0.5000000), wk =   0.0138889
        k(  118) = (  -0.4166667  -0.1666667   0.0000000), wk =   0.0138889
        k(  119) = (  -0.4166667  -0.1666667  -0.2500000), wk =   0.0277778
        k(  120) = (  -0.4166667  -0.1666667   0.5000000), wk =   0.0138889
        k(  121) = (   0.5000000  -0.2500000   0.0000000), wk =   0.0069444
        k(  122) = (   0.5000000  -0.2500000  -0.2500000), wk =   0.0138889
        k(  123) = (   0.5000000  -0.2500000   0.5000000), wk =   0.0069444
        k(  124) = (  -0.3333333  -0.2500000   0.0000000), wk =   0.0138889
        k(  125) = (   0.5833333  -0.3333333   0.0000000), wk =   0.0138889
        k(  126) = (  -0.3333333  -0.2500000  -0.2500000), wk =   0.0277778
        k(  127) = (   0.5833333  -0.3333333  -0.2500000), wk =   0.0277778
        k(  128) = (  -0.3333333  -0.2500000   0.5000000), wk =   0.0138889
        k(  129) = (   0.5833333  -0.3333333   0.5000000), wk =   0.0138889

     Dense  grid:    34301 G-vectors     FFT dimensions: (  30,  30,  96)

     Smooth grid:    12031 G-vectors     FFT dimensions: (  20,  20,  72)

     Dynamical RAM for                 wfc:       0.28 MB

     Dynamical RAM for     wfc (w. buffer):      36.04 MB

     Dynamical RAM for           str. fact:       0.52 MB

     Dynamical RAM for           local pot:       0.00 MB

     Dynamical RAM for          nlocal pot:       0.74 MB

     Dynamical RAM for                qrad:       0.44 MB

     Dynamical RAM for          rho,v,vnew:       3.55 MB

     Dynamical RAM for               rhoin:       1.18 MB

     Dynamical RAM for            rho*nmix:       8.37 MB

     Dynamical RAM for           G-vectors:       2.05 MB

     Dynamical RAM for          h,s,v(r/c):       0.03 MB

     Dynamical RAM for          <psi|beta>:       0.01 MB

     Dynamical RAM for                 psi:       0.55 MB

     Dynamical RAM for                hpsi:       0.55 MB

     Dynamical RAM for                spsi:       0.55 MB

     Dynamical RAM for      wfcinit/wfcrot:       0.75 MB

     Dynamical RAM for           addusdens:      24.60 MB

     Dynamical RAM for          addusforce:      28.00 MB

     Dynamical RAM for         addusstress:      26.17 MB

     Estimated static dynamical RAM per process >      57.24 MB

     Estimated max dynamical RAM per process >      85.24 MB

     Check: negative core charge=   -0.000010

     Initial potential from superposition of free atoms

     starting charge   15.99983, renormalised to   16.00000
     Starting wfcs are   16 randomized atomic wfcs

     total cpu time spent up to now is       10.0 secs

     Self-consistent Calculation

     iteration #  1     ecut=    45.00 Ry     beta= 0.70
     Davidson diagonalization with overlap
     ethr =  1.00E-02,  avg # of iterations =  2.8

     total cpu time spent up to now is       39.7 secs

     total energy              =     -49.66210133 Ry
     estimated scf accuracy    <       0.37708849 Ry

     iteration #  2     ecut=    45.00 Ry     beta= 0.70
     Davidson diagonalization with overlap
     ethr =  2.36E-03,  avg # of iterations =  2.4

     total cpu time spent up to now is       51.0 secs

     total energy              =     -49.71316264 Ry
     estimated scf accuracy    <       0.00436501 Ry

     iteration #  3     ecut=    45.00 Ry     beta= 0.70
     Davidson diagonalization with overlap
     c_bands:  1 eigenvalues not converged
     ethr =  2.73E-05,  avg # of iterations =  7.0

     total cpu time spent up to now is       66.6 secs

     total energy              =     -49.71353019 Ry
     estimated scf accuracy    <       0.00031110 Ry

     iteration #  4     ecut=    45.00 Ry     beta= 0.70
     Davidson diagonalization with overlap
     ethr =  1.94E-06,  avg # of iterations =  4.0

     total cpu time spent up to now is       80.6 secs

     total energy              =     -49.71354772 Ry
     estimated scf accuracy    <       0.00000199 Ry

     iteration #  5     ecut=    45.00 Ry     beta= 0.70
     Davidson diagonalization with overlap
     ethr =  1.24E-08,  avg # of iterations =  2.9

     total cpu time spent up to now is       92.6 secs

     total energy              =     -49.71354882 Ry
     estimated scf accuracy    <       0.00000007 Ry

     iteration #  6     ecut=    45.00 Ry     beta= 0.70
     Davidson diagonalization with overlap
     ethr =  4.16E-10,  avg # of iterations =  2.2

     total cpu time spent up to now is      101.9 secs

     total energy              =     -49.71354883 Ry
     estimated scf accuracy    <       0.00000001 Ry

     iteration #  7     ecut=    45.00 Ry     beta= 0.70
     Davidson diagonalization with overlap
     ethr =  9.30E-11,  avg # of iterations =  1.7

     total cpu time spent up to now is      109.3 secs

     End of self-consistent calculation

          k = 0.0000 0.0000 0.0000 (  1497 PWs)   bands (ev):

   -14.6993 -14.6539  -3.0614  -2.4974   1.7298   1.7313   1.7341   1.7356
     7.9714  13.0940  13.0996  13.1006

     occupation numbers 
     1.0000   1.0000   1.0000   1.0000   1.0000   1.0000   1.0000   1.0000
    -0.0000  -0.0000  -0.0000  -0.0000

          k = 0.0000 0.0000 0.0741 (  1480 PWs)   bands (ev):

   -14.6926 -14.6607  -2.9851  -2.5871   1.7300   1.7311   1.7343   1.7354
     8.3340  10.6651  13.0957  13.1002

     occupation numbers 
     1.0000   1.0000   1.0000   1.0000   1.0000   1.0000   1.0000   1.0000
    -0.0000  -0.0000  -0.0000  -0.0000

          k = 0.0000 0.0000-0.1483 (  1450 PWs)   bands (ev):

   -14.6766 -14.6766  -2.7928  -2.7928   1.7306   1.7306   1.7349   1.7349
     9.3284   9.3284  13.0973  13.0974

     occupation numbers 
     1.0000   1.0000   1.0000   1.0000   1.0000   1.0000   1.0000   1.0000
    -0.0000  -0.0000  -0.0000  -0.0000

          k = 0.0000 0.0962 0.0000 (  1493 PWs)   bands (ev):

   -14.5357 -14.4910  -2.8640  -2.3047   1.0808   1.0839   1.3968   1.3992
     8.1839  11.6857  13.1517  13.1766

     occupation numbers 
     1.0000   1.0000   1.0000   1.0000   1.0000   1.0000   1.0000   1.0000
    -0.0000  -0.0000  -0.0000  -0.0000

          k = 0.0000 0.0962 0.0741 (  1489 PWs)   bands (ev):

   -14.5292 -14.4976  -2.7883  -2.3936   1.0813   1.0835   1.3971   1.3989
     8.5446  10.8633  13.1625  13.1750

     occupation numbers 
     1.0000   1.0000   1.0000   1.0000   1.0000   1.0000   1.0000   1.0000
    -0.0000  -0.0000  -0.0000  -0.0000

          k = 0.0000 0.0962-0.1483 (  1486 PWs)   bands (ev):

   -14.5134 -14.5134  -2.5975  -2.5975   1.0824   1.0824   1.3980   1.3980
     9.5338   9.5338  13.1705  13.1705

     occupation numbers 
     1.0000   1.0000   1.0000   1.0000   1.0000   1.0000   1.0000   1.0000
    -0.0000  -0.0000  -0.0000  -0.0000

          k = 0.0000 0.1925 0.0000 (  1503 PWs)   bands (ev):

   -14.0469 -14.0040  -2.2766  -1.7324  -0.5525  -0.5458   0.6069   0.6106
     8.8218  12.2531  13.0762  13.1305

     occupation numbers 
     1.0000   1.0000   1.0000   1.0000   1.0000   1.0000   1.0000   1.0000
    -0.0000  -0.0000  -0.0000  -0.0000

          k = 0.0000 0.1925 0.0741 (  1496 PWs)   bands (ev):

   -14.0407 -14.0103  -2.2028  -1.8187  -0.5515  -0.5468   0.6075   0.6101
     9.1762  11.4485  13.1018  13.1276

     occupation numbers 
     1.0000   1.0000   1.0000   1.0000   1.0000   1.0000   1.0000   1.0000
    -0.0000  -0.0000  -0.0000  -0.0000

          k = 0.0000 0.1925-0.1483 (  1490 PWs)   bands (ev):

   -14.0256 -14.0256  -2.0170  -2.0170  -0.5492  -0.5492   0.6088   0.6088
    10.1473  10.1473  13.1181  13.1181

     occupation numbers 
     1.0000   1.0000   1.0000   1.0000   1.0000   1.0000   1.0000   1.0000
    -0.0000  -0.0000  -0.0000  -0.0000

          k = 0.0000 0.2887 0.0000 (  1497 PWs)   bands (ev):

   -13.2387 -13.1985  -2.6452  -2.6337  -1.3172  -0.8009  -0.2702  -0.2657
     9.8822  11.9193  12.0386  12.7886

     occupation numbers 
     1.0000   1.0000   1.0000   1.0000   1.0000   1.0000   1.0000   1.0000
    -0.0000  -0.0000  -0.0000  -0.0000

          k = 0.0000 0.2887 0.0741 (  1502 PWs)   bands (ev):

   -13.2329 -13.2045  -2.6436  -2.6355  -1.2469  -0.8825  -0.2695  -0.2664
    10.2192  11.8854  12.0074  12.5414

     occupation numbers 
     1.0000   1.0000   1.0000   1.0000   1.0000   1.0000   1.0000   1.0000
    -0.0000  -0.0000  -0.0000  -0.0000

          k = 0.0000 0.2887-0.1483 (  1508 PWs)   bands (ev):

   -13.2188 -13.2188  -2.6395  -2.6395  -1.0703  -1.0703  -0.2679  -0.2679
    11.1183  11.1183  12.0697  12.0697

     occupation numbers 
     1.0000   1.0000   1.0000   1.0000   1.0000   1.0000   1.0000   1.0000
    -0.0000  -0.0000  -0.0000  -0.0000

          k = 0.0000 0.3849 0.0000 (  1504 PWs)   bands (ev):

   -12.1233 -12.0869  -4.8423  -4.8258  -1.0015  -0.9966  -0.0325   0.4353
     9.5915   9.8074  11.3486  12.4551

     occupation numbers 
     1.0000   1.0000   1.0000   1.0000   1.0000   1.0000   1.0000   1.0000
    -0.0000  -0.0000  -0.0000  -0.0000

          k = 0.0000 0.3849 0.0741 (  1509 PWs)   bands (ev):

   -12.1181 -12.0923  -4.8399  -4.8282  -1.0008  -0.9973   0.0317   0.3620
     9.6141   9.7679  11.6829  12.4549

     occupation numbers 
     1.0000   1.0000   1.0000   1.0000   1.0000   1.0000   1.0000   1.0000
    -0.0000  -0.0000  -0.0000  -0.0000

          k = 0.0000 0.3849-0.1483 (  1502 PWs)   bands (ev):

   -12.1052 -12.1052  -4.8340  -4.8340  -0.9991  -0.9991   0.1924   0.1924
     9.6834   9.6834  12.3716  12.3717

     occupation numbers 
     1.0000   1.0000   1.0000   1.0000   1.0000   1.0000   1.0000   1.0000
    -0.0000  -0.0000  -0.0000  -0.0000

          k = 0.0000 0.4811 0.0000 (  1508 PWs)   bands (ev):

   -10.7320 -10.7004  -6.9356  -6.9144  -1.4732  -1.4680   1.4291   1.7968
     7.4417   7.7140  12.2046  12.2618

     occupation numbers 
     1.0000   1.0000   1.0000   1.0000   1.0000   1.0000   1.0000   1.0000
    -0.0006  -0.0001  -0.0000  -0.0000

          k = 0.0000 0.4811 0.0741 (  1510 PWs)   bands (ev):

   -10.7274 -10.7051  -6.9325  -6.9175  -1.4724  -1.4688   1.4807   1.7406
     7.4749   7.6674  12.2144  12.2552

     occupation numbers 
     1.0000   1.0000   1.0000   1.0000   1.0000   1.0000   1.0000   1.0000
    -0.0005  -0.0002  -0.0000  -0.0000

          k = 0.0000 0.4811-0.1483 (  1500 PWs)   bands (ev):

   -10.7163 -10.7163  -6.9250  -6.9250  -1.4706  -1.4706   1.6084   1.6084
     7.5646   7.5646  12.2361  12.2361

     occupation numbers 
     1.0000   1.0000   1.0000   1.0000   1.0000   1.0000   1.0000   1.0000
    -0.0003  -0.0003  -0.0000  -0.0000

          k = 0.0000-0.5774 0.0000 (  1508 PWs)   bands (ev):

    -9.4704  -9.4555  -8.4260  -8.4141  -1.6351  -1.6299   2.3590   2.5319
     6.3750   6.6127  12.1223  12.1884

     occupation numbers 
     1.0000   1.0000   1.0000   1.0000   1.0000   1.0000   1.0004   1.0010
    -0.0271  -0.0160  -0.0000  -0.0000

          k = 0.0000-0.5774 0.0741 (  1520 PWs)   bands (ev):

    -9.4683  -9.4577  -8.4244  -8.4159  -1.6343  -1.6307   2.3858   2.5083
     6.3997   6.5677  12.1320  12.1786

     occupation numbers 
     1.0000   1.0000   1.0000   1.0000   1.0000   1.0000   1.0005   1.0009
    -0.0260  -0.0180  -0.0000  -0.0000

          k = 0.0000-0.5774-0.1483 (  1520 PWs)   bands (ev):

    -9.4629  -9.4629  -8.4203  -8.4203  -1.6325  -1.6325   2.4486   2.4486
     6.4737   6.4737  12.1552  12.1552

     occupation numbers 
     1.0000   1.0000   1.0000   1.0000   1.0000   1.0000   1.0007   1.0007
    -0.0224  -0.0224  -0.0000  -0.0000

          k = 0.0833 0.1443 0.0000 (  1505 PWs)   bands (ev):

   -14.2095 -14.1660  -2.4715  -1.9221   0.0510   0.0541   0.7221   0.7243
     8.6096  12.0702  13.4297  13.4800

     occupation numbers 
     1.0000   1.0000   1.0000   1.0000   1.0000   1.0000   1.0000   1.0000
    -0.0000  -0.0000  -0.0000  -0.0000

          k = 0.0833 0.1443 0.0741 (  1502 PWs)   bands (ev):

   -14.2032 -14.1725  -2.3970  -2.0093   0.0515   0.0537   0.7224   0.7240
     8.9663  11.2576  13.4535  13.4773

     occupation numbers 
     1.0000   1.0000   1.0000   1.0000   1.0000   1.0000   1.0000   1.0000
    -0.0000  -0.0000  -0.0000  -0.0000

          k = 0.0833 0.1443-0.1483 (  1500 PWs)   bands (ev):

   -14.1879 -14.1879  -2.2095  -2.2095   0.0526   0.0526   0.7232   0.7232
     9.9444   9.9444  13.4692  13.4692

     occupation numbers 
     1.0000   1.0000   1.0000   1.0000   1.0000   1.0000   1.0000   1.0000
    -0.0000  -0.0000  -0.0000  -0.0000

          k = 0.0833 0.2406 0.0000 (  1500 PWs)   bands (ev):

   -13.5611 -13.5198  -1.6970  -1.6554  -1.6479  -1.1689  -0.2722  -0.2678
     9.4605  12.7000  12.8152  13.0110

     occupation numbers 
     1.0000   1.0000   1.0000   1.0000   1.0000   1.0000   1.0000   1.0000
    -0.0000  -0.0000  -0.0000  -0.0000

          k = 0.0833 0.2406 0.0741 (  1503 PWs)   bands (ev):

   -13.5551 -13.5259  -1.6544  -1.6491  -1.6252  -1.2525  -0.2715  -0.2685
     9.8077  12.0168  12.8194  12.9014

     occupation numbers 
     1.0000   1.0000   1.0000   1.0000   1.0000   1.0000   1.0000   1.0000
    -0.0000  -0.0000  -0.0000  -0.0000

          k = 0.0833 0.2406-0.1483 (  1506 PWs)   bands (ev):

   -13.5406 -13.5406  -1.6517  -1.6517  -1.4447  -1.4447  -0.2700  -0.2700
    10.7575  10.7575  12.8539  12.8541

     occupation numbers 
     1.0000   1.0000   1.0000   1.0000   1.0000   1.0000   1.0000   1.0000
    -0.0000  -0.0000  -0.0000  -0.0000

          k = 0.0833 0.3368 0.0000 (  1514 PWs)   bands (ev):

   -12.5992 -12.5611  -3.7230  -3.7098  -1.1564  -1.1504  -0.5692  -0.0778
    10.6320  10.7301  10.7839  13.3104

     occupation numbers 
     1.0000   1.0000   1.0000   1.0000   1.0000   1.0000   1.0000   1.0000
    -0.0000  -0.0000  -0.0000  -0.0000

          k = 0.0833 0.3368 0.0741 (  1506 PWs)   bands (ev):

   -12.5936 -12.5667  -3.7211  -3.7118  -1.1555  -1.1513  -0.5020  -0.1551
    10.6298  10.7500  11.0962  13.1318

     occupation numbers 
     1.0000   1.0000   1.0000   1.0000   1.0000   1.0000   1.0000   1.0000
    -0.0000  -0.0000  -0.0000  -0.0000

          k = 0.0833 0.3368-0.1483 (  1504 PWs)   bands (ev):

   -12.5802 -12.5802  -3.7164  -3.7164  -1.1534  -1.1534  -0.3336  -0.3336
    10.6865  10.6865  12.0052  12.0052

     occupation numbers 
     1.0000   1.0000   1.0000   1.0000   1.0000   1.0000   1.0000   1.0000
    -0.0000  -0.0000  -0.0000  -0.0000

          k = 0.0833 0.4330 0.0000 (  1522 PWs)   bands (ev):

   -11.3426 -11.3088  -5.8395  -5.8210  -1.7899  -1.7831   0.8343   1.2595
     8.3990   8.6304  12.3880  13.0288

     occupation numbers 
     1.0000   1.0000   1.0000   1.0000   1.0000   1.0000   1.0000   1.0000
    -0.0000  -0.0000  -0.0000  -0.0000

          k = 0.0833 0.4330 0.0741 (  1517 PWs)   bands (ev):

   -11.3377 -11.3138  -5.8367  -5.8237  -1.7889  -1.7841   0.8931   1.1935
     8.4280   8.5919  12.6788  13.0345

     occupation numbers 
     1.0000   1.0000   1.0000   1.0000   1.0000   1.0000   1.0000   1.0000
    -0.0000  -0.0000  -0.0000  -0.0000

          k = 0.0833 0.4330-0.1483 (  1514 PWs)   bands (ev):

   -11.3258 -11.3258  -5.8302  -5.8302  -1.7865  -1.7865   1.0397   1.0397
     8.5054   8.5054  13.0203  13.0203

     occupation numbers 
     1.0000   1.0000   1.0000   1.0000   1.0000   1.0000   1.0000   1.0000
    -0.0000  -0.0000  -0.0000  -0.0000

          k = 0.0833 0.5292 0.0000 (  1524 PWs)   bands (ev):

    -9.8682  -9.8411  -7.7724  -7.7510  -2.1176  -2.1105   2.2098   2.4758
     6.6432   6.8822  12.8523  12.9272

     occupation numbers 
     1.0000   1.0000   1.0000   1.0000   1.0000   1.0000   1.0002   1.0008
    -0.0147  -0.0069  -0.0000  -0.0000

          k = 0.0833 0.5292 0.0741 (  1515 PWs)   bands (ev):

    -9.8642  -9.8450  -7.7693  -7.7542  -2.1165  -2.1115   2.2487   2.4368
     6.6707   6.8398  12.8633  12.9163

     occupation numbers 
     1.0000   1.0000   1.0000   1.0000   1.0000   1.0000   1.0002   1.0007
    -0.0136  -0.0080  -0.0000  -0.0000

          k = 0.0833 0.5292-0.1483 (  1524 PWs)   bands (ev):

    -9.8547  -9.8547  -7.7618  -7.7618  -2.1140  -2.1140   2.3426   2.3426
     6.7478   6.7478  12.8898  12.8898

     occupation numbers 
     1.0000   1.0000   1.0000   1.0000   1.0000   1.0000   1.0004   1.0004
    -0.0108  -0.0108  -0.0000  -0.0000

          k = 0.1667 0.2887 0.0000 (  1509 PWs)   bands (ev):

   -12.7588 -12.7203  -2.9817  -2.9757  -1.6272  -1.6228  -0.7507  -0.2518
    10.5224  11.0968  11.1972  13.6823

     occupation numbers 
     1.0000   1.0000   1.0000   1.0000   1.0000   1.0000   1.0000   1.0000
    -0.0000  -0.0000  -0.0000  -0.0000

          k = 0.1667 0.2887 0.0741 (  1516 PWs)   bands (ev):

   -12.7532 -12.7260  -2.9808  -2.9766  -1.6266  -1.6234  -0.6826  -0.3303
    10.8552  11.1113  11.1826  12.9639

     occupation numbers 
     1.0000   1.0000   1.0000   1.0000   1.0000   1.0000   1.0000   1.0000
    -0.0000  -0.0000  -0.0000  -0.0000

          k = 0.1667 0.2887-0.1483 (  1518 PWs)   bands (ev):

   -12.7397 -12.7397  -2.9787  -2.9787  -1.6250  -1.6250  -0.5117  -0.5117
    11.1466  11.1466  11.7648  11.7648

     occupation numbers 
     1.0000   1.0000   1.0000   1.0000   1.0000   1.0000   1.0000   1.0000
    -0.0000  -0.0000  -0.0000  -0.0000

          k = 0.1667 0.3849 0.0000 (  1517 PWs)   bands (ev):

   -11.6543 -11.6195  -4.7054  -4.6928  -2.6813  -2.6731   0.5189   0.9695
     9.1408   9.2843  11.9941  14.9271

     occupation numbers 
     1.0000   1.0000   1.0000   1.0000   1.0000   1.0000   1.0000   1.0000
    -0.0000  -0.0000  -0.0000  -0.0000

          k = 0.1667 0.3849 0.0741 (  1515 PWs)   bands (ev):

   -11.6493 -11.6246  -4.7036  -4.6947  -2.6801  -2.6743   0.5809   0.8991
     9.1607   9.2624  12.3007  14.1632

     occupation numbers 
     1.0000   1.0000   1.0000   1.0000   1.0000   1.0000   1.0000   1.0000
    -0.0000  -0.0000  -0.0000  -0.0000

          k = 0.1667 0.3849-0.1483 (  1524 PWs)   bands (ev):

   -11.6370 -11.6370  -4.6991  -4.6991  -2.6773  -2.6773   0.7358   0.7358
     9.2105   9.2105  13.1245  13.1246

     occupation numbers 
     1.0000   1.0000   1.0000   1.0000   1.0000   1.0000   1.0000   1.0000
    -0.0000  -0.0000  -0.0000  -0.0000

          k = 0.1667 0.4811 0.0000 (  1522 PWs)   bands (ev):

   -10.2829 -10.2528  -6.6098  -6.5909  -3.2573  -3.2469   1.9811   2.3397
     7.2176   7.4115  13.8410  14.7169

     occupation numbers 
     1.0000   1.0000   1.0000   1.0000   1.0000   1.0000   1.0001   1.0004
    -0.0018  -0.0007  -0.0000  -0.0000

          k = 0.1667 0.4811 0.0741 (  1525 PWs)   bands (ev):

   -10.2785 -10.2573  -6.6071  -6.5937  -3.2558  -3.2484   2.0315   2.2849
     7.2432   7.3805  14.0852  14.7238

     occupation numbers 
     1.0000   1.0000   1.0000   1.0000   1.0000   1.0000   1.0001   1.0003
    -0.0016  -0.0009  -0.0000  -0.0000

          k = 0.1667 0.4811-0.1483 (  1520 PWs)   bands (ev):

   -10.2679 -10.2679  -6.6004  -6.6004  -3.2521  -3.2521   2.1560   2.1560
     7.3091   7.3091  14.6256  14.6256

     occupation numbers 
     1.0000   1.0000   1.0000   1.0000   1.0000   1.0000   1.0001   1.0001
    -0.0012  -0.0012  -0.0000  -0.0000

          k = 0.1667 0.5774 0.0000 (  1527 PWs)   bands (ev):

    -9.0503  -9.0361  -8.0299  -8.0193  -3.4421  -3.4312   2.9562   3.1254
     6.1949   6.3255  14.6180  14.7571

     occupation numbers 
     1.0000   1.0000   1.0000   1.0000   1.0000   1.0000   1.0062   1.0109
    -0.0342  -0.0294  -0.0000  -0.0000

          k = 0.1667 0.5774 0.0741 (  1526 PWs)   bands (ev):

    -9.0482  -9.0381  -8.0284  -8.0210  -3.4405  -3.4328   2.9826   3.1025
     6.2072   6.2999  14.6361  14.7337

     occupation numbers 
     1.0000   1.0000   1.0000   1.0000   1.0000   1.0000   1.0068   1.0101
    -0.0339  -0.0305  -0.0000  -0.0000

          k = 0.1667 0.5774-0.1483 (  1532 PWs)   bands (ev):

    -9.0432  -9.0432  -8.0248  -8.0248  -3.4367  -3.4367   3.0443   3.0443
     6.2469   6.2469  14.6819  14.6819

     occupation numbers 
     1.0000   1.0000   1.0000   1.0000   1.0000   1.0000   1.0084   1.0084
    -0.0326  -0.0326  -0.0000  -0.0000

          k = 0.2500 0.4330 0.0000 (  1525 PWs)   bands (ev):

   -10.4300 -10.3993  -5.7376  -5.7285  -4.1550  -4.1480   1.8845   2.2718
     7.5372   7.6736  13.6414  15.3854

     occupation numbers 
     1.0000   1.0000   1.0000   1.0000   1.0000   1.0000   1.0000   1.0003
    -0.0004  -0.0002  -0.0000  -0.0000

          k = 0.2500 0.4330 0.0741 (  1530 PWs)   bands (ev):

   -10.4256 -10.4038  -5.7363  -5.7298  -4.1540  -4.1491   1.9383   2.2120
     7.5571   7.6534  13.8711  15.0837

     occupation numbers 
     1.0000   1.0000   1.0000   1.0000   1.0000   1.0000   1.0000   1.0002
    -0.0003  -0.0002  -0.0000  -0.0000

          k = 0.2500 0.4330-0.1483 (  1534 PWs)   bands (ev):

   -10.4147 -10.4147  -5.7330  -5.7330  -4.1516  -4.1516   2.0722   2.0722
     7.6051   7.6051  14.4491  14.4491

     occupation numbers 
     1.0000   1.0000   1.0000   1.0000   1.0000   1.0000   1.0001   1.0001
    -0.0003  -0.0003  -0.0000  -0.0000

          k = 0.2500 0.5292 0.0000 (  1531 PWs)   bands (ev):

    -9.0125  -8.9882  -7.1544  -7.1386  -4.8625  -4.8508   3.3201   3.5843
     6.0309   6.1613  15.5764  15.6376

     occupation numbers 
     1.0000   1.0000   1.0000   1.0000   1.0000   1.0000   1.0187   1.0311
    -0.0345  -0.0349  -0.0000  -0.0000

          k = 0.2500 0.5292 0.0741 (  1531 PWs)   bands (ev):

    -9.0089  -8.9918  -7.1521  -7.1410  -4.8608  -4.8525   3.3585   3.5454
     6.0480   6.1403  15.4061  15.4988

     occupation numbers 
     1.0000   1.0000   1.0000   1.0000   1.0000   1.0000   1.0205   1.0294
    -0.0349  -0.0352  -0.0000  -0.0000

          k = 0.2500 0.5292-0.1483 (  1544 PWs)   bands (ev):

    -9.0004  -9.0004  -7.1466  -7.1466  -4.8567  -4.8567   3.4516   3.4516
     6.0922   6.0922  15.3419  15.3419

     occupation numbers 
     1.0000   1.0000   1.0000   1.0000   1.0000   1.0000   1.0250   1.0250
    -0.0354  -0.0354  -0.0000  -0.0000

          k = 0.3333 0.5774 0.0000 (  1527 PWs)   bands (ev):

    -7.8026  -7.7903  -7.7902  -7.7785  -5.7431  -5.7431   4.6455   4.7998
     4.7999   4.9622  15.4991  15.4998

     occupation numbers 
     1.0000   1.0000   1.0000   1.0000   1.0000   1.0000   0.7451   0.6194
     0.6193   0.4764  -0.0000  -0.0000

          k = 0.3333 0.5774 0.0741 (  1530 PWs)   bands (ev):

    -7.7992  -7.7903  -7.7901  -7.7820  -5.7431  -5.7431   4.6899   4.8007
     4.8008   4.9138  15.3308  15.3312

     occupation numbers 
     1.0000   1.0000   1.0000   1.0000   1.0000   1.0000   0.7106   0.6186
     0.6185   0.5195  -0.0000  -0.0000

          k = 0.3333 0.5774-0.1483 (  1542 PWs)   bands (ev):

    -7.7912  -7.7912  -7.7897  -7.7897  -5.7432  -5.7432   4.7993   4.7993
     4.8020   4.8020  15.1995  15.1995

     occupation numbers 
     1.0000   1.0000   1.0000   1.0000   1.0000   1.0000   0.6198   0.6198
     0.6175   0.6175  -0.0000  -0.0000

          k =-0.0833-0.0481 0.0000 (  1493 PWs)   bands (ev):

   -14.5357 -14.4910  -2.8640  -2.3047   1.0836   1.0868   1.3938   1.3963
     8.1839  11.6856  13.1482  13.1731

     occupation numbers 
     1.0000   1.0000   1.0000   1.0000   1.0000   1.0000   1.0000   1.0000
    -0.0000  -0.0000  -0.0000  -0.0000

          k =-0.0833-0.0481-0.0741 (  1489 PWs)   bands (ev):

   -14.5292 -14.4976  -2.7883  -2.3937   1.0841   1.0863   1.3942   1.3960
     8.5446  10.8633  13.1590  13.1716

     occupation numbers 
     1.0000   1.0000   1.0000   1.0000   1.0000   1.0000   1.0000   1.0000
    -0.0000  -0.0000  -0.0000  -0.0000

          k =-0.0833-0.0481 0.1483 (  1486 PWs)   bands (ev):

   -14.5134 -14.5134  -2.5975  -2.5975   1.0852   1.0852   1.3951   1.3951
     9.5338   9.5338  13.1670  13.1670

     occupation numbers 
     1.0000   1.0000   1.0000   1.0000   1.0000   1.0000   1.0000   1.0000
    -0.0000  -0.0000  -0.0000  -0.0000

          k =-0.1667-0.0962 0.0000 (  1503 PWs)   bands (ev):

   -14.0469 -14.0040  -2.2766  -1.7325  -0.5503  -0.5436   0.6045   0.6082
     8.8218  12.2529  13.0740  13.1283

     occupation numbers 
     1.0000   1.0000   1.0000   1.0000   1.0000   1.0000   1.0000   1.0000
    -0.0000  -0.0000  -0.0000  -0.0000

          k =-0.1667-0.0962-0.0741 (  1496 PWs)   bands (ev):

   -14.0407 -14.0103  -2.2028  -1.8188  -0.5494  -0.5446   0.6051   0.6077
     9.1761  11.4484  13.0997  13.1254

     occupation numbers 
     1.0000   1.0000   1.0000   1.0000   1.0000   1.0000   1.0000   1.0000
    -0.0000  -0.0000  -0.0000  -0.0000

          k =-0.1667-0.0962 0.1483 (  1490 PWs)   bands (ev):

   -14.0255 -14.0255  -2.0170  -2.0170  -0.5470  -0.5470   0.6064   0.6064
    10.1473  10.1473  13.1159  13.1159

     occupation numbers 
     1.0000   1.0000   1.0000   1.0000   1.0000   1.0000   1.0000   1.0000
    -0.0000  -0.0000  -0.0000  -0.0000

          k =-0.2500-0.1443 0.0000 (  1497 PWs)   bands (ev):

   -13.2387 -13.1985  -2.6436  -2.6322  -1.3173  -0.8011  -0.2721  -0.2677
     9.8822  11.9200  12.0393  12.7857

     occupation numbers 
     1.0000   1.0000   1.0000   1.0000   1.0000   1.0000   1.0000   1.0000
    -0.0000  -0.0000  -0.0000  -0.0000

          k =-0.2500-0.1443-0.0741 (  1502 PWs)   bands (ev):

   -13.2329 -13.2045  -2.6420  -2.6339  -1.2471  -0.8826  -0.2715  -0.2683
    10.2191  11.8856  12.0083  12.5415

     occupation numbers 
     1.0000   1.0000   1.0000   1.0000   1.0000   1.0000   1.0000   1.0000
    -0.0000  -0.0000  -0.0000  -0.0000

          k =-0.2500-0.1443 0.1483 (  1508 PWs)   bands (ev):

   -13.2187 -13.2187  -2.6379  -2.6379  -1.0704  -1.0704  -0.2699  -0.2699
    11.1181  11.1181  12.0707  12.0708

     occupation numbers 
     1.0000   1.0000   1.0000   1.0000   1.0000   1.0000   1.0000   1.0000
    -0.0000  -0.0000  -0.0000  -0.0000

          k =-0.3333-0.1925 0.0000 (  1504 PWs)   bands (ev):

   -12.1233 -12.0868  -4.8411  -4.8246  -1.0032  -0.9983  -0.0329   0.4349
     9.5927   9.8086  11.3486  12.4542

     occupation numbers 
     1.0000   1.0000   1.0000   1.0000   1.0000   1.0000   1.0000   1.0000
    -0.0000  -0.0000  -0.0000  -0.0000

          k =-0.3333-0.1925-0.0741 (  1509 PWs)   bands (ev):

   -12.1180 -12.0923  -4.8387  -4.8270  -1.0025  -0.9990   0.0313   0.3616
     9.6152   9.7690  11.6829  12.4540

     occupation numbers 
     1.0000   1.0000   1.0000   1.0000   1.0000   1.0000   1.0000   1.0000
    -0.0000  -0.0000  -0.0000  -0.0000

          k =-0.3333-0.1925 0.1483 (  1502 PWs)   bands (ev):

   -12.1052 -12.1052  -4.8328  -4.8328  -1.0007  -1.0007   0.1920   0.1920
     9.6846   9.6846  12.3710  12.3710

     occupation numbers 
     1.0000   1.0000   1.0000   1.0000   1.0000   1.0000   1.0000   1.0000
    -0.0000  -0.0000  -0.0000  -0.0000

          k =-0.4167-0.2406 0.0000 (  1508 PWs)   bands (ev):

   -10.7320 -10.7004  -6.9345  -6.9133  -1.4747  -1.4695   1.4282   1.7958
     7.4435   7.7158  12.2039  12.2611

     occupation numbers 
     1.0000   1.0000   1.0000   1.0000   1.0000   1.0000   1.0000   1.0000
    -0.0006  -0.0001  -0.0000  -0.0000

          k =-0.4167-0.2406-0.0741 (  1510 PWs)   bands (ev):

   -10.7274 -10.7051  -6.9314  -6.9164  -1.4739  -1.4703   1.4799   1.7397
     7.4766   7.6692  12.2137  12.2545

     occupation numbers 
     1.0000   1.0000   1.0000   1.0000   1.0000   1.0000   1.0000   1.0000
    -0.0005  -0.0002  -0.0000  -0.0000

          k =-0.4167-0.2406 0.1483 (  1500 PWs)   bands (ev):

   -10.7163 -10.7163  -6.9239  -6.9239  -1.4721  -1.4721   1.6075   1.6075
     7.5664   7.5664  12.2354  12.2354

     occupation numbers 
     1.0000   1.0000   1.0000   1.0000   1.0000   1.0000   1.0000   1.0000
    -0.0003  -0.0003  -0.0000  -0.0000

          k = 0.5000 0.2887 0.0000 (  1508 PWs)   bands (ev):

    -9.4713  -9.4563  -8.4242  -8.4123  -1.6366  -1.6313   2.3575   2.5304
     6.3773   6.6153  12.1217  12.1877

     occupation numbers 
     1.0000   1.0000   1.0000   1.0000   1.0000   1.0000   1.0004   1.0010
    -0.0270  -0.0159  -0.0000  -0.0000

          k = 0.5000 0.2887-0.0741 (  1520 PWs)   bands (ev):

    -9.4691  -9.4585  -8.4226  -8.4141  -1.6358  -1.6321   2.3843   2.5068
     6.4021   6.5703  12.1313  12.1780

     occupation numbers 
     1.0000   1.0000   1.0000   1.0000   1.0000   1.0000   1.0005   1.0009
    -0.0259  -0.0178  -0.0000  -0.0000

          k = 0.5000 0.2887 0.1483 (  1520 PWs)   bands (ev):

    -9.4638  -9.4638  -8.4184  -8.4184  -1.6339  -1.6339   2.4471   2.4471
     6.4761   6.4761  12.1546  12.1546

     occupation numbers 
     1.0000   1.0000   1.0000   1.0000   1.0000   1.0000   1.0007   1.0007
    -0.0223  -0.0223  -0.0000  -0.0000

          k = 0.1667 0.0000 0.0000 (  1505 PWs)   bands (ev):

   -14.2095 -14.1660  -2.4715  -1.9222   0.0537   0.0568   0.7193   0.7214
     8.6096  12.0701  13.4254  13.4757

     occupation numbers 
     1.0000   1.0000   1.0000   1.0000   1.0000   1.0000   1.0000   1.0000
    -0.0000  -0.0000  -0.0000  -0.0000

          k = 0.1667 0.0000-0.0741 (  1502 PWs)   bands (ev):

   -14.2032 -14.1725  -2.3971  -2.0094   0.0542   0.0564   0.7196   0.7211
     8.9663  11.2575  13.4491  13.4729

     occupation numbers 
     1.0000   1.0000   1.0000   1.0000   1.0000   1.0000   1.0000   1.0000
    -0.0000  -0.0000  -0.0000  -0.0000

          k = 0.1667 0.0000 0.1483 (  1500 PWs)   bands (ev):

   -14.1879 -14.1879  -2.2096  -2.2096   0.0553   0.0553   0.7204   0.7204
     9.9443   9.9443  13.4648  13.4649

     occupation numbers 
     1.0000   1.0000   1.0000   1.0000   1.0000   1.0000   1.0000   1.0000
    -0.0000  -0.0000  -0.0000  -0.0000

          k =-0.1667-0.1925 0.0000 (  1500 PWs)   bands (ev):

   -13.5611 -13.5198  -1.6970  -1.6543  -1.6468  -1.1690  -0.2735  -0.2692
     9.4605  12.6995  12.8155  13.0119

     occupation numbers 
     1.0000   1.0000   1.0000   1.0000   1.0000   1.0000   1.0000   1.0000
    -0.0000  -0.0000  -0.0000  -0.0000

          k = 0.2500-0.0481 0.0000 (  1500 PWs)   bands (ev):

   -13.5610 -13.5198  -1.6971  -1.6531  -1.6456  -1.1690  -0.2748  -0.2705
     9.4605  12.6998  12.8161  13.0119

     occupation numbers 
     1.0000   1.0000   1.0000   1.0000   1.0000   1.0000   1.0000   1.0000
    -0.0000  -0.0000  -0.0000  -0.0000

          k =-0.1667-0.1925-0.0741 (  1503 PWs)   bands (ev):

   -13.5551 -13.5259  -1.6532  -1.6480  -1.6252  -1.2525  -0.2729  -0.2698
     9.8077  12.0165  12.8198  12.9017

     occupation numbers 
     1.0000   1.0000   1.0000   1.0000   1.0000   1.0000   1.0000   1.0000
    -0.0000  -0.0000  -0.0000  -0.0000

          k = 0.2500-0.0481-0.0741 (  1503 PWs)   bands (ev):

   -13.5551 -13.5259  -1.6520  -1.6468  -1.6253  -1.2526  -0.2742  -0.2711
     9.8076  12.0164  12.8203  12.9022

     occupation numbers 
     1.0000   1.0000   1.0000   1.0000   1.0000   1.0000   1.0000   1.0000
    -0.0000  -0.0000  -0.0000  -0.0000

          k =-0.1667-0.1925 0.1483 (  1506 PWs)   bands (ev):

   -13.5406 -13.5406  -1.6505  -1.6505  -1.4447  -1.4447  -0.2713  -0.2713
    10.7574  10.7574  12.8543  12.8543

     occupation numbers 
     1.0000   1.0000   1.0000   1.0000   1.0000   1.0000   1.0000   1.0000
    -0.0000  -0.0000  -0.0000  -0.0000

          k = 0.2500-0.0481 0.1483 (  1506 PWs)   bands (ev):

   -13.5405 -13.5405  -1.6494  -1.6494  -1.4448  -1.4448  -0.2726  -0.2726
    10.7574  10.7574  12.8548  12.8549

     occupation numbers 
     1.0000   1.0000   1.0000   1.0000   1.0000   1.0000   1.0000   1.0000
    -0.0000  -0.0000  -0.0000  -0.0000

          k =-0.2500-0.2406 0.0000 (  1514 PWs)   bands (ev):

   -12.5991 -12.5611  -3.7218  -3.7087  -1.1579  -1.1519  -0.5694  -0.0780
    10.6327  10.7301  10.7845  13.3093

     occupation numbers 
     1.0000   1.0000   1.0000   1.0000   1.0000   1.0000   1.0000   1.0000
    -0.0000  -0.0000  -0.0000  -0.0000

          k = 0.3333-0.0962 0.0000 (  1514 PWs)   bands (ev):

   -12.5991 -12.5611  -3.7214  -3.7083  -1.1584  -1.1524  -0.5695  -0.0781
    10.6332  10.7301  10.7850  13.3087

     occupation numbers 
     1.0000   1.0000   1.0000   1.0000   1.0000   1.0000   1.0000   1.0000
    -0.0000  -0.0000  -0.0000  -0.0000

          k =-0.2500-0.2406-0.0741 (  1506 PWs)   bands (ev):

   -12.5936 -12.5667  -3.7199  -3.7106  -1.1570  -1.1528  -0.5022  -0.1553
    10.6303  10.7505  11.0965  13.1322

     occupation numbers 
     1.0000   1.0000   1.0000   1.0000   1.0000   1.0000   1.0000   1.0000
    -0.0000  -0.0000  -0.0000  -0.0000

          k = 0.3333-0.0962-0.0741 (  1506 PWs)   bands (ev):

   -12.5936 -12.5667  -3.7195  -3.7102  -1.1575  -1.1533  -0.5023  -0.1554
    10.6308  10.7511  11.0965  13.1320

     occupation numbers 
     1.0000   1.0000   1.0000   1.0000   1.0000   1.0000   1.0000   1.0000
    -0.0000  -0.0000  -0.0000  -0.0000

          k =-0.2500-0.2406 0.1483 (  1504 PWs)   bands (ev):

   -12.5802 -12.5802  -3.7153  -3.7153  -1.1549  -1.1549  -0.3338  -0.3338
    10.6870  10.6870  12.0054  12.0054

     occupation numbers 
     1.0000   1.0000   1.0000   1.0000   1.0000   1.0000   1.0000   1.0000
    -0.0000  -0.0000  -0.0000  -0.0000

          k = 0.3333-0.0962 0.1483 (  1504 PWs)   bands (ev):

   -12.5802 -12.5802  -3.7148  -3.7148  -1.1554  -1.1554  -0.3339  -0.3339
    10.6875  10.6875  12.0053  12.0053

     occupation numbers 
     1.0000   1.0000   1.0000   1.0000   1.0000   1.0000   1.0000   1.0000
    -0.0000  -0.0000  -0.0000  -0.0000

          k =-0.3333-0.2887 0.0000 (  1522 PWs)   bands (ev):

   -11.3426 -11.3088  -5.8384  -5.8200  -1.7913  -1.7845   0.8338   1.2590
     8.4002   8.6315  12.3880  13.0280

     occupation numbers 
     1.0000   1.0000   1.0000   1.0000   1.0000   1.0000   1.0000   1.0000
    -0.0000  -0.0000  -0.0000  -0.0000

          k = 0.4167-0.1443 0.0000 (  1522 PWs)   bands (ev):

   -11.3426 -11.3088  -5.8383  -5.8198  -1.7915  -1.7847   0.8337   1.2589
     8.4006   8.6319  12.3879  13.0277

     occupation numbers 
     1.0000   1.0000   1.0000   1.0000   1.0000   1.0000   1.0000   1.0000
    -0.0000  -0.0000  -0.0000  -0.0000

          k =-0.3333-0.2887-0.0741 (  1517 PWs)   bands (ev):

   -11.3377 -11.3138  -5.8357  -5.8227  -1.7903  -1.7855   0.8927   1.1930
     8.4292   8.5931  12.6788  13.0338

     occupation numbers 
     1.0000   1.0000   1.0000   1.0000   1.0000   1.0000   1.0000   1.0000
    -0.0000  -0.0000  -0.0000  -0.0000

          k = 0.4167-0.1443-0.0741 (  1517 PWs)   bands (ev):

   -11.3377 -11.3138  -5.8356  -5.8225  -1.7905  -1.7857   0.8925   1.1929
     8.4296   8.5935  12.6785  13.0334

     occupation numbers 
     1.0000   1.0000   1.0000   1.0000   1.0000   1.0000   1.0000   1.0000
    -0.0000  -0.0000  -0.0000  -0.0000

          k =-0.3333-0.2887 0.1483 (  1514 PWs)   bands (ev):

   -11.3258 -11.3258  -5.8292  -5.8292  -1.7879  -1.7879   1.0392   1.0392
     8.5065   8.5065  13.0197  13.0197

     occupation numbers 
     1.0000   1.0000   1.0000   1.0000   1.0000   1.0000   1.0000   1.0000
    -0.0000  -0.0000  -0.0000  -0.0000

          k = 0.4167-0.1443 0.1483 (  1514 PWs)   bands (ev):

   -11.3258 -11.3258  -5.8290  -5.8290  -1.7881  -1.7881   1.0391   1.0391
     8.5069   8.5069  13.0193  13.0193

     occupation numbers 
     1.0000   1.0000   1.0000   1.0000   1.0000   1.0000   1.0000   1.0000
    -0.0000  -0.0000  -0.0000  -0.0000

          k =-0.4167-0.3368 0.0000 (  1524 PWs)   bands (ev):

    -9.8684  -9.8413  -7.7711  -7.7498  -2.1190  -2.1118   2.2087   2.4745
     6.6453   6.8843  12.8516  12.9266

     occupation numbers 
     1.0000   1.0000   1.0000   1.0000   1.0000   1.0000   1.0002   1.0008
    -0.0146  -0.0069  -0.0000  -0.0000

          k = 0.5000-0.1925 0.0000 (  1524 PWs)   bands (ev):

    -9.8684  -9.8413  -7.7711  -7.7498  -2.1190  -2.1119   2.2086   2.4744
     6.6454   6.8845  12.8515  12.9264

     occupation numbers 
     1.0000   1.0000   1.0000   1.0000   1.0000   1.0000   1.0002   1.0008
    -0.0146  -0.0069  -0.0000  -0.0000

          k =-0.4167-0.3368-0.0741 (  1515 PWs)   bands (ev):

    -9.8644  -9.8453  -7.7680  -7.7529  -2.1179  -2.1129   2.2475   2.4356
     6.6727   6.8419  12.8626  12.9156

     occupation numbers 
     1.0000   1.0000   1.0000   1.0000   1.0000   1.0000   1.0002   1.0007
    -0.0135  -0.0080  -0.0000  -0.0000

          k = 0.5000-0.1925-0.0741 (  1515 PWs)   bands (ev):

    -9.8644  -9.8453  -7.7680  -7.7529  -2.1180  -2.1129   2.2474   2.4355
     6.6729   6.8421  12.8625  12.9155

     occupation numbers 
     1.0000   1.0000   1.0000   1.0000   1.0000   1.0000   1.0002   1.0007
    -0.0135  -0.0080  -0.0000  -0.0000

          k =-0.4167-0.3368 0.1483 (  1524 PWs)   bands (ev):

    -9.8549  -9.8549  -7.7605  -7.7605  -2.1154  -2.1154   2.3414   2.3414
     6.7499   6.7499  12.8891  12.8891

     occupation numbers 
     1.0000   1.0000   1.0000   1.0000   1.0000   1.0000   1.0004   1.0004
    -0.0107  -0.0107  -0.0000  -0.0000

          k = 0.5000-0.1925 0.1483 (  1524 PWs)   bands (ev):

    -9.8549  -9.8549  -7.7605  -7.7605  -2.1154  -2.1154   2.3413   2.3413
     6.7500   6.7500  12.8890  12.8890

     occupation numbers 
     1.0000   1.0000   1.0000   1.0000   1.0000   1.0000   1.0004   1.0004
    -0.0107  -0.0107  -0.0000  -0.0000

          k = 0.3333 0.0000 0.0000 (  1509 PWs)   bands (ev):

   -12.7588 -12.7202  -2.9797  -2.9737  -1.6294  -1.6250  -0.7508  -0.2520
    10.5224  11.0978  11.1982  13.6819

     occupation numbers 
     1.0000   1.0000   1.0000   1.0000   1.0000   1.0000   1.0000   1.0000
    -0.0000  -0.0000  -0.0000  -0.0000

          k = 0.3333 0.0000-0.0741 (  1516 PWs)   bands (ev):

   -12.7532 -12.7259  -2.9788  -2.9746  -1.6288  -1.6256  -0.6828  -0.3306
    10.8552  11.1123  11.1836  12.9637

     occupation numbers 
     1.0000   1.0000   1.0000   1.0000   1.0000   1.0000   1.0000   1.0000
    -0.0000  -0.0000  -0.0000  -0.0000

          k = 0.3333 0.0000 0.1483 (  1518 PWs)   bands (ev):

   -12.7396 -12.7396  -2.9767  -2.9767  -1.6272  -1.6272  -0.5119  -0.5119
    11.1476  11.1476  11.7646  11.7646

     occupation numbers 
     1.0000   1.0000   1.0000   1.0000   1.0000   1.0000   1.0000   1.0000
    -0.0000  -0.0000  -0.0000  -0.0000

          k =-0.2500-0.3368 0.0000 (  1517 PWs)   bands (ev):

   -11.6543 -11.6194  -4.7046  -4.6920  -2.6823  -2.6741   0.5188   0.9693
     9.1413   9.2847  11.9941  14.9256

     occupation numbers 
     1.0000   1.0000   1.0000   1.0000   1.0000   1.0000   1.0000   1.0000
    -0.0000  -0.0000  -0.0000  -0.0000

          k = 0.4167-0.0481 0.0000 (  1517 PWs)   bands (ev):

   -11.6542 -11.6194  -4.7037  -4.6911  -2.6833  -2.6751   0.5185   0.9690
     9.1422   9.2856  11.9941  14.9293

     occupation numbers 
     1.0000   1.0000   1.0000   1.0000   1.0000   1.0000   1.0000   1.0000
    -0.0000  -0.0000  -0.0000  -0.0000

          k =-0.2500-0.3368-0.0741 (  1515 PWs)   bands (ev):

   -11.6493 -11.6246  -4.7028  -4.6939  -2.6811  -2.6753   0.5808   0.8989
     9.1611   9.2628  12.3007  14.1632

     occupation numbers 
     1.0000   1.0000   1.0000   1.0000   1.0000   1.0000   1.0000   1.0000
    -0.0000  -0.0000  -0.0000  -0.0000

          k = 0.4167-0.0481-0.0741 (  1515 PWs)   bands (ev):

   -11.6492 -11.6245  -4.7019  -4.6930  -2.6821  -2.6763   0.5805   0.8987
     9.1620   9.2637  12.3007  14.1627

     occupation numbers 
     1.0000   1.0000   1.0000   1.0000   1.0000   1.0000   1.0000   1.0000
    -0.0000  -0.0000  -0.0000  -0.0000

          k =-0.2500-0.3368 0.1483 (  1524 PWs)   bands (ev):

   -11.6370 -11.6370  -4.6983  -4.6983  -2.6782  -2.6782   0.7356   0.7356
     9.2110   9.2110  13.1246  13.1246

     occupation numbers 
     1.0000   1.0000   1.0000   1.0000   1.0000   1.0000   1.0000   1.0000
    -0.0000  -0.0000  -0.0000  -0.0000

          k = 0.4167-0.0481 0.1483 (  1524 PWs)   bands (ev):

   -11.6369 -11.6369  -4.6975  -4.6975  -2.6792  -2.6792   0.7354   0.7354
     9.2119   9.2119  13.1243  13.1243

     occupation numbers 
     1.0000   1.0000   1.0000   1.0000   1.0000   1.0000   1.0000   1.0000
    -0.0000  -0.0000  -0.0000  -0.0000

          k =-0.3333-0.3849 0.0000 (  1522 PWs)   bands (ev):

   -10.2829 -10.2529  -6.6088  -6.5899  -3.2585  -3.2481   1.9805   2.3391
     7.2189   7.4126  13.8411  14.7164

     occupation numbers 
     1.0000   1.0000   1.0000   1.0000   1.0000   1.0000   1.0001   1.0004
    -0.0018  -0.0007  -0.0000  -0.0000

          k = 0.5000-0.0962 0.0000 (  1522 PWs)   bands (ev):

   -10.2829 -10.2529  -6.6086  -6.5897  -3.2588  -3.2484   1.9802   2.3388
     7.2195   7.4133  13.8410  14.7159

     occupation numbers 
     1.0000   1.0000   1.0000   1.0000   1.0000   1.0000   1.0001   1.0004
    -0.0018  -0.0007  -0.0000  -0.0000

          k =-0.3333-0.3849-0.0741 (  1525 PWs)   bands (ev):

   -10.2786 -10.2573  -6.6061  -6.5927  -3.2570  -3.2496   2.0309   2.2843
     7.2444   7.3816  14.0853  14.7231

     occupation numbers 
     1.0000   1.0000   1.0000   1.0000   1.0000   1.0000   1.0001   1.0003
    -0.0016  -0.0008  -0.0000  -0.0000

          k = 0.5000-0.0962-0.0741 (  1525 PWs)   bands (ev):

   -10.2786 -10.2573  -6.6058  -6.5925  -3.2573  -3.2499   2.0306   2.2840
     7.2450   7.3823  14.0852  14.7227

     occupation numbers 
     1.0000   1.0000   1.0000   1.0000   1.0000   1.0000   1.0001   1.0003
    -0.0016  -0.0008  -0.0000  -0.0000

          k =-0.3333-0.3849 0.1483 (  1520 PWs)   bands (ev):

   -10.2680 -10.2680  -6.5994  -6.5994  -3.2533  -3.2533   2.1554   2.1554
     7.3103   7.3103  14.6255  14.6255

     occupation numbers 
     1.0000   1.0000   1.0000   1.0000   1.0000   1.0000   1.0001   1.0001
    -0.0012  -0.0012  -0.0000  -0.0000

          k = 0.5000-0.0962 0.1483 (  1520 PWs)   bands (ev):

   -10.2680 -10.2680  -6.5991  -6.5991  -3.2536  -3.2536   2.1550   2.1550
     7.3110   7.3110  14.6247  14.6251

     occupation numbers 
     1.0000   1.0000   1.0000   1.0000   1.0000   1.0000   1.0001   1.0001
    -0.0012  -0.0012  -0.0000  -0.0000

          k =-0.4167-0.4330 0.0000 (  1527 PWs)   bands (ev):

    -9.0512  -9.0370  -8.0280  -8.0174  -3.4434  -3.4325   2.9547   3.1239
     6.1971   6.3279  14.6173  14.7563

     occupation numbers 
     1.0000   1.0000   1.0000   1.0000   1.0000   1.0000   1.0061   1.0108
    -0.0341  -0.0293  -0.0000  -0.0000

          k =-0.4167-0.4330-0.0741 (  1526 PWs)   bands (ev):

    -9.0491  -9.0390  -8.0265  -8.0190  -3.4418  -3.4341   2.9811   3.1010
     6.2094   6.3022  14.6353  14.7329

     occupation numbers 
     1.0000   1.0000   1.0000   1.0000   1.0000   1.0000   1.0067   1.0101
    -0.0338  -0.0304  -0.0000  -0.0000

          k =-0.4167-0.4330 0.1483 (  1532 PWs)   bands (ev):

    -9.0441  -9.0441  -8.0228  -8.0228  -3.4379  -3.4379   3.0428   3.0428
     6.2491   6.2491  14.6811  14.6811

     occupation numbers 
     1.0000   1.0000   1.0000   1.0000   1.0000   1.0000   1.0083   1.0083
    -0.0325  -0.0325  -0.0000  -0.0000

          k = 0.5000-0.0000 0.0000 (  1525 PWs)   bands (ev):

   -10.4300 -10.3992  -5.7362  -5.7270  -4.1567  -4.1496   1.8839   2.2712
     7.5385   7.6748  13.6414  15.3844

     occupation numbers 
     1.0000   1.0000   1.0000   1.0000   1.0000   1.0000   1.0000   1.0003
    -0.0004  -0.0002  -0.0000  -0.0000

          k = 0.5000-0.0000-0.0741 (  1530 PWs)   bands (ev):

   -10.4255 -10.4038  -5.7348  -5.7283  -4.1556  -4.1507   1.9378   2.2114
     7.5584   7.6547  13.8710  15.0830

     occupation numbers 
     1.0000   1.0000   1.0000   1.0000   1.0000   1.0000   1.0000   1.0002
    -0.0003  -0.0002  -0.0000  -0.0000

          k = 0.5000-0.0000 0.1483 (  1534 PWs)   bands (ev):

   -10.4147 -10.4147  -5.7316  -5.7316  -4.1532  -4.1532   2.0716   2.0716
     7.6064   7.6064  14.4487  14.4487

     occupation numbers 
     1.0000   1.0000   1.0000   1.0000   1.0000   1.0000   1.0001   1.0001
    -0.0003  -0.0003  -0.0000  -0.0000

          k =-0.3333-0.4811 0.0000 (  1531 PWs)   bands (ev):

    -9.0127  -8.9884  -7.1533  -7.1376  -4.8634  -4.8517   3.3195   3.5836
     6.0321   6.1622  15.5765  15.6372

     occupation numbers 
     1.0000   1.0000   1.0000   1.0000   1.0000   1.0000   1.0187   1.0310
    -0.0345  -0.0349  -0.0000  -0.0000

          k = 0.5833-0.0481 0.0000 (  1531 PWs)   bands (ev):

    -9.0128  -8.9885  -7.1528  -7.1371  -4.8639  -4.8522   3.3189   3.5830
     6.0328   6.1631  15.5764  15.6364

     occupation numbers 
     1.0000   1.0000   1.0000   1.0000   1.0000   1.0000   1.0187   1.0310
    -0.0346  -0.0349  -0.0000  -0.0000

          k =-0.3333-0.4811-0.0741 (  1531 PWs)   bands (ev):

    -9.0092  -8.9920  -7.1510  -7.1399  -4.8617  -4.8534   3.3578   3.5446
     6.0492   6.1412  15.4060  15.4986

     occupation numbers 
     1.0000   1.0000   1.0000   1.0000   1.0000   1.0000   1.0205   1.0294
    -0.0349  -0.0352  -0.0000  -0.0000

          k = 0.5833-0.0481-0.0741 (  1531 PWs)   bands (ev):

    -9.0092  -8.9921  -7.1505  -7.1394  -4.8622  -4.8539   3.3572   3.5441
     6.0499   6.1421  15.4058  15.4979

     occupation numbers 
     1.0000   1.0000   1.0000   1.0000   1.0000   1.0000   1.0204   1.0293
    -0.0350  -0.0352  -0.0000  -0.0000

          k =-0.3333-0.4811 0.1483 (  1544 PWs)   bands (ev):

    -9.0006  -9.0006  -7.1455  -7.1455  -4.8576  -4.8576   3.4509   3.4509
     6.0932   6.0932  15.3417  15.3417

     occupation numbers 
     1.0000   1.0000   1.0000   1.0000   1.0000   1.0000   1.0250   1.0250
    -0.0354  -0.0354  -0.0000  -0.0000

          k = 0.5833-0.0481 0.1483 (  1544 PWs)   bands (ev):

    -9.0007  -9.0007  -7.1450  -7.1450  -4.8580  -4.8580   3.4503   3.4503
     6.0940   6.0940  15.3413  15.3413

     occupation numbers 
     1.0000   1.0000   1.0000   1.0000   1.0000   1.0000   1.0249   1.0249
    -0.0354  -0.0354  -0.0000  -0.0000

     the Fermi energy is     4.9357 ev

!    total energy              =     -49.71354883 Ry
     estimated scf accuracy    <          2.1E-10 Ry
     smearing contrib. (-TS)   =       0.00341304 Ry
     internal energy E=F+TS    =     -49.71696187 Ry

     The total energy is F=E-TS. E is the sum of the following terms:
     one-electron contribution =     -29.91640686 Ry
     hartree contribution      =      21.74087576 Ry
     xc contribution           =     -18.53812825 Ry
     ewald contribution        =     -23.00330253 Ry

     convergence has been achieved in   7 iterations

     Forces acting on atoms (cartesian axes, Ry/au):

     atom    1 type  1   force =     0.00000000   -0.00029464    0.00000000
     atom    2 type  1   force =     0.00000000    0.00029464    0.00000000
     atom    3 type  1   force =     0.00000000    0.00029528    0.00000000
     atom    4 type  1   force =     0.00000000   -0.00029528    0.00000000
     The non-local contrib.  to forces
     atom    1 type  1   force =     0.00000000   -0.00026183    0.00000000
     atom    2 type  1   force =     0.00000000    0.00026183    0.00000000
     atom    3 type  1   force =     0.00000000    0.00026203    0.00000000
     atom    4 type  1   force =     0.00000000   -0.00026203    0.00000000
     The ionic contribution  to forces
     atom    1 type  1   force =    -0.00000000   -0.00098176   -0.00000000
     atom    2 type  1   force =    -0.00000000    0.00098176    0.00000000
     atom    3 type  1   force =    -0.00000000    0.00098202   -0.00000000
     atom    4 type  1   force =     0.00000000   -0.00098202    0.00000000
     The local contribution  to forces
     atom    1 type  1   force =     0.00000000    0.00094052    0.00000000
     atom    2 type  1   force =     0.00000000   -0.00094052    0.00000000
     atom    3 type  1   force =    -0.00000000   -0.00094107    0.00000000
     atom    4 type  1   force =    -0.00000000    0.00094107    0.00000000
     The core correction contribution to forces
     atom    1 type  1   force =     0.00000000    0.00000849   -0.00000000
     atom    2 type  1   force =     0.00000000   -0.00000849   -0.00000000
     atom    3 type  1   force =     0.00000000   -0.00000775   -0.00000000
     atom    4 type  1   force =     0.00000000    0.00000775   -0.00000000
     The Hubbard contrib.    to forces
     atom    1 type  1   force =     0.00000000    0.00000000    0.00000000
     atom    2 type  1   force =     0.00000000    0.00000000    0.00000000
     atom    3 type  1   force =     0.00000000    0.00000000    0.00000000
     atom    4 type  1   force =     0.00000000    0.00000000    0.00000000
     The SCF correction term to forces
     atom    1 type  1   force =    -0.00000000   -0.00000006    0.00000000
     atom    2 type  1   force =     0.00000000    0.00000006    0.00000000
     atom    3 type  1   force =    -0.00000000    0.00000005    0.00000000
     atom    4 type  1   force =     0.00000000   -0.00000005    0.00000000

     Total force =     0.000590     Total SCF correction =     0.000000


     Computing stress (Cartesian axis) and pressure

          total   stress  (Ry/bohr**3)                   (kbar)     P=      -13.26
  -0.00013652  -0.00000000   0.00000000          -20.08       -0.00        0.00
  -0.00000000  -0.00013502   0.00000000           -0.00      -19.86        0.00
   0.00000000   0.00000000   0.00000115            0.00        0.00        0.17

     kinetic stress (kbar)   9265.37      0.00      0.00
                                0.00   9264.67     -0.00
                                0.00      0.00  10528.68

     local   stress (kbar) -26774.73     -0.00      0.00
                               -0.00 -26779.13      0.00
                                0.00      0.00  27091.69

     nonloc. stress (kbar)   1801.48      0.00      0.00
                                0.00   1801.63      0.00
                                0.00      0.00   1655.07

     hartree stress (kbar)   9939.89     -0.00     -0.00
                               -0.00   9940.52     -0.00
                               -0.00     -0.00  -9112.32

     exc-cor stress (kbar)   -164.97      0.00      0.00
                                0.00   -164.95      0.00
                                0.00      0.00   -269.60

     corecor stress (kbar)  -2235.96      0.00     -0.00
                                0.00  -2235.99      0.00
                               -0.00      0.00  -2197.76

     ewald   stress (kbar)   8148.85     -0.00     -0.00
                               -0.00   8153.39      0.00
                               -0.00      0.00 -27695.59

     hubbard stress (kbar)      0.00      0.00      0.00
                                0.00      0.00      0.00
                                0.00      0.00      0.00

     DFT-D   stress (kbar)      0.00      0.00      0.00
                                0.00      0.00      0.00
                                0.00      0.00      0.00

     XDM     stress (kbar)      0.00      0.00      0.00
                                0.00      0.00      0.00
                                0.00      0.00      0.00

     dft-nl  stress (kbar)      0.00      0.00      0.00
                                0.00      0.00      0.00
                                0.00      0.00      0.00

     TS-vdW  stress (kbar)      0.00      0.00      0.00
                                0.00      0.00      0.00
                                0.00      0.00      0.00



     Writing output data file ./tmp/C.save/

     init_run     :      8.90s CPU      9.39s WALL (       1 calls)
     electrons    :     95.28s CPU     99.34s WALL (       1 calls)
     forces       :      1.69s CPU      1.73s WALL (       1 calls)
     stress       :      4.75s CPU      4.82s WALL (       1 calls)

     Called by init_run:
     wfcinit      :      6.83s CPU      7.20s WALL (       1 calls)
     wfcinit:atom :      0.22s CPU      0.23s WALL (     129 calls)
     wfcinit:wfcr :      5.33s CPU      5.65s WALL (     129 calls)
     potinit      :      0.46s CPU      0.48s WALL (       1 calls)
     hinit0       :      1.29s CPU      1.32s WALL (       1 calls)

     Called by electrons:
     c_bands      :     80.15s CPU     83.65s WALL (       7 calls)
     sum_band     :     12.75s CPU     13.28s WALL (       7 calls)
     v_of_rho     :      1.89s CPU      1.93s WALL (       8 calls)
     v_h          :      0.09s CPU      0.09s WALL (       8 calls)
     v_xc         :      2.19s CPU      2.23s WALL (      10 calls)
     newd         :      0.55s CPU      0.57s WALL (       8 calls)
     mix_rho      :      0.19s CPU      0.19s WALL (       7 calls)

     Called by c_bands:
     init_us_2    :      3.13s CPU      3.30s WALL (    2193 calls)
     cegterg      :     75.50s CPU     78.76s WALL (     903 calls)

     Called by sum_band:
     sum_band:wei :      0.08s CPU      0.08s WALL (       7 calls)
     sum_band:loo :     11.59s CPU     12.06s WALL (       7 calls)
     sum_band:buf :      0.12s CPU      0.12s WALL (     903 calls)
     sum_band:ini :      1.27s CPU      1.30s WALL (     903 calls)
     sum_band:cal :      0.98s CPU      1.03s WALL (     903 calls)
     sum_band:bec :      0.04s CPU      0.05s WALL (     903 calls)
     addusdens    :      0.58s CPU      0.64s WALL (       7 calls)
     addusd:skk   :      0.01s CPU      0.02s WALL (       7 calls)
     addusd:dgemm :      0.13s CPU      0.18s WALL (       7 calls)
     addusd:qvan2 :      0.25s CPU      0.25s WALL (       7 calls)

     Called by *egterg:
     cdiaghg      :      2.58s CPU      2.68s WALL (    3869 calls)
     cegterg:over :      3.75s CPU      3.96s WALL (    2966 calls)
     cegterg:upda :      2.31s CPU      2.40s WALL (    2966 calls)
     cegterg:last :      3.88s CPU      4.04s WALL (    1958 calls)
     h_psi        :     61.65s CPU     64.46s WALL (    3998 calls)
     s_psi        :      3.43s CPU      3.58s WALL (    3998 calls)
     g_psi        :      0.70s CPU      0.73s WALL (    2966 calls)

     Called by h_psi:
     h_psi:calbec :      4.02s CPU      4.15s WALL (    3998 calls)
     vloc_psi     :     52.86s CPU     55.31s WALL (    3998 calls)
     add_vuspsi   :      4.06s CPU      4.24s WALL (    3998 calls)

     General routines
     calbec       :      5.45s CPU      5.67s WALL (    5546 calls)
     fft          :      1.30s CPU      1.31s WALL (     127 calls)
     ffts         :      0.04s CPU      0.04s WALL (      15 calls)
     fftw         :     48.84s CPU     51.21s WALL (   73094 calls)
     interpolate  :      0.13s CPU      0.13s WALL (       8 calls)

     Parallel routines

     PWSCF        :   1m51.19s CPU   1m56.23s WALL


   This run was terminated on:  17:56:12  23May2022            

=------------------------------------------------------------------------------=
   JOB DONE.
=------------------------------------------------------------------------------=
