
     Program PWSCF v.6.7MaX starts on 23May2022 at 17:56:12 

     This program is part of the open-source Quantum ESPRESSO suite
     for quantum simulation of materials; please cite
         "P. Giannozzi et al., J. Phys.:Condens. Matter 21 395502 (2009);
         "P. Giannozzi et al., J. Phys.:Condens. Matter 29 465901 (2017);
          URL http://www.quantum-espresso.org", 
     in publications or presentations arising from this work. More details at
     http://www.quantum-espresso.org/quote

     Parallel version (MPI), running on     1 processors

     MPI processes distributed on     1 nodes
     Waiting for input...
     Reading input from standard input

     Current dimensions of program PWSCF are:
     Max number of different atomic species (ntypx) = 10
     Max number of k-points (npk) =  40000
     Max angular momentum in pseudopotentials (lmaxx) =  3

     Subspace diagonalization in iterative solution of the eigenvalue problem:
     a serial algorithm will be used


     G-vector sticks info
     --------------------
     sticks:   dense  smooth     PW     G-vecs:    dense   smooth      PW
     Sum         547     265     85                34301    12031    2223



     bravais-lattice index     =            4
     lattice parameter (alat)  =       4.6676  a.u.
     unit-cell volume          =     297.0066 (a.u.)^3
     number of atoms/cell      =            4
     number of atomic types    =            1
     number of electrons       =        16.00
     number of Kohn-Sham states=           12
     kinetic-energy cutoff     =      45.0000  Ry
     charge density cutoff     =     360.0000  Ry
     scf convergence threshold =      1.0E-09
     mixing beta               =       0.7000
     number of iterations used =            8  plain     mixing
     Exchange-correlation= PBE
                           (   1   4   3   4   0   0   0)

     celldm(1)=   4.667624  celldm(2)=   1.000000  celldm(3)=   3.372470
     celldm(4)=   0.000000  celldm(5)=   0.000000  celldm(6)=   0.000000

     crystal axes: (cart. coord. in units of alat)
               a(1) = (   1.000000   0.000000   0.000000 )  
               a(2) = (  -0.500000   0.866025   0.000000 )  
               a(3) = (   0.000000   0.000000   3.372470 )  

     reciprocal axes: (cart. coord. in units 2 pi/alat)
               b(1) = (  1.000000  0.577350 -0.000000 )  
               b(2) = (  0.000000  1.154701  0.000000 )  
               b(3) = (  0.000000 -0.000000  0.296519 )  


     PseudoPot. # 1 for C  read from file:
     /home/max/Desktop/graphite_DFT/Pseudo/C.pbe-n-rrkjus_psl.1.0.0.UPF
     MD5 check sum: 1fdd950c42eb37d8afe3dd2f8d12311e
     Pseudo is Ultrasoft + core correction, Zval =  4.0
     Generated using &quot;atomic&quot; code by A. Dal Corso  v.6.3MaX
     Using radial grid of 1073 points,  4 beta functions with: 
                l(1) =   0
                l(2) =   0
                l(3) =   1
                l(4) =   1
     Q(r) pseudized with 0 coefficients 


     atomic species   valence    mass     pseudopotential
        C              4.00    12.01100     C ( 1.00)

      8 Sym. Ops., with inversion, found ( 4 have fractional translation)


                                    s                        frac. trans.

      isym =  1     identity                                     

 cryst.   s( 1) = (     1          0          0      )
                  (     0          1          0      )
                  (     0          0          1      )

 cart.    s( 1) = (  1.0000000  0.0000000  0.0000000 )
                  (  0.0000000  1.0000000  0.0000000 )
                  (  0.0000000  0.0000000  1.0000000 )


      isym =  2     180 deg rotation - cart. axis [0,0,1]        

 cryst.   s( 2) = (    -1          0          0      )    f =(  0.0000000 )
                  (     0         -1          0      )       (  0.0000000 )
                  (     0          0          1      )       ( -0.5000000 )

 cart.    s( 2) = ( -1.0000000  0.0000000  0.0000000 )    f =(  0.0000000 )
                  (  0.0000000 -1.0000000  0.0000000 )       (  0.0000000 )
                  (  0.0000000  0.0000000  1.0000000 )       ( -1.6862348 )


      isym =  3     180 deg rotation - cart. axis [0,1,0]        

 cryst.   s( 3) = (    -1          0          0      )    f =(  0.0000000 )
                  (     1          1          0      )       (  0.0000000 )
                  (     0          0         -1      )       (  0.5000000 )

 cart.    s( 3) = ( -1.0000000  0.0000000  0.0000000 )    f =(  0.0000000 )
                  (  0.0000000  1.0000000  0.0000000 )       (  0.0000000 )
                  (  0.0000000  0.0000000 -1.0000000 )       (  1.6862348 )


      isym =  4     180 deg rotation - cart. axis [1,0,0]        

 cryst.   s( 4) = (     1          0          0      )
                  (    -1         -1          0      )
                  (     0          0         -1      )

 cart.    s( 4) = (  1.0000000  0.0000000  0.0000000 )
                  (  0.0000000 -1.0000000  0.0000000 )
                  (  0.0000000  0.0000000 -1.0000000 )


      isym =  5     inversion                                    

 cryst.   s( 5) = (    -1          0          0      )
                  (     0         -1          0      )
                  (     0          0         -1      )

 cart.    s( 5) = ( -1.0000000  0.0000000  0.0000000 )
                  (  0.0000000 -1.0000000  0.0000000 )
                  (  0.0000000  0.0000000 -1.0000000 )


      isym =  6     inv. 180 deg rotation - cart. axis [0,0,1]   

 cryst.   s( 6) = (     1          0          0      )    f =(  0.0000000 )
                  (     0          1          0      )       (  0.0000000 )
                  (     0          0         -1      )       (  0.5000000 )

 cart.    s( 6) = (  1.0000000  0.0000000  0.0000000 )    f =(  0.0000000 )
                  (  0.0000000  1.0000000  0.0000000 )       (  0.0000000 )
                  (  0.0000000  0.0000000 -1.0000000 )       (  1.6862348 )


      isym =  7     inv. 180 deg rotation - cart. axis [0,1,0]   

 cryst.   s( 7) = (     1          0          0      )    f =(  0.0000000 )
                  (    -1         -1          0      )       (  0.0000000 )
                  (     0          0          1      )       ( -0.5000000 )

 cart.    s( 7) = (  1.0000000  0.0000000  0.0000000 )    f =(  0.0000000 )
                  (  0.0000000 -1.0000000  0.0000000 )       (  0.0000000 )
                  (  0.0000000  0.0000000  1.0000000 )       ( -1.6862348 )


      isym =  8     inv. 180 deg rotation - cart. axis [1,0,0]   

 cryst.   s( 8) = (    -1          0          0      )
                  (     1          1          0      )
                  (     0          0          1      )

 cart.    s( 8) = ( -1.0000000  0.0000000  0.0000000 )
                  (  0.0000000  1.0000000  0.0000000 )
                  (  0.0000000  0.0000000  1.0000000 )


     point group D_2h (mmm) 
     there are  8 classes
     the character table:

       E     C2    C2'   C2''  i     s_v   s_v'  s_v''
A_g    1.00  1.00  1.00  1.00  1.00  1.00  1.00  1.00
B_1g   1.00  1.00 -1.00 -1.00  1.00  1.00 -1.00 -1.00
B_2g   1.00 -1.00  1.00 -1.00  1.00 -1.00  1.00 -1.00
B_3g   1.00 -1.00 -1.00  1.00  1.00 -1.00 -1.00  1.00
A_u    1.00  1.00  1.00  1.00 -1.00 -1.00 -1.00 -1.00
B_1u   1.00  1.00 -1.00 -1.00 -1.00 -1.00  1.00  1.00
B_2u   1.00 -1.00  1.00 -1.00 -1.00  1.00 -1.00  1.00
B_3u   1.00 -1.00 -1.00  1.00 -1.00  1.00  1.00 -1.00

     the symmetry operations in each class and the name of the first element:

     E        1
          identity                                               
     C2       2
          180 deg rotation - cart. axis [0,0,1]                  
     C2'      4
          180 deg rotation - cart. axis [1,0,0]                  
     C2''     3
          180 deg rotation - cart. axis [0,1,0]                  
     i        5
          inversion                                              
     s_v      6
          inv. 180 deg rotation - cart. axis [0,0,1]             
     s_v'     8
          inv. 180 deg rotation - cart. axis [1,0,0]             
     s_v''    7
          inv. 180 deg rotation - cart. axis [0,1,0]             

   Cartesian axes

     site n.     atom                  positions (alat units)
         1           C   tau(   1) = (   0.0000000   0.0000000   0.8431174  )
         2           C   tau(   2) = (   0.0000000   0.0000000   2.5293522  )
         3           C   tau(   3) = (   0.0000000   0.5772925   0.8431174  )
         4           C   tau(   4) = (   0.5000000   0.2887329   2.5293522  )

   Crystallographic axes

     site n.     atom                  positions (cryst. coord.)
         1           C   tau(   1) = (  0.0000000  0.0000000  0.2500000  )
         2           C   tau(   2) = (  0.0000000  0.0000000  0.7500000  )
         3           C   tau(   3) = (  0.3333000  0.6666000  0.2500000  )
         4           C   tau(   4) = (  0.6667000  0.3334000  0.7500000  )

     number of k points=   129  Methfessel-Paxton smearing, width (Ry)=  0.0500
                       cart. coord. in units 2pi/alat
        k(    1) = (   0.0000000   0.0000000   0.0000000), wk =   0.0034722
        k(    2) = (   0.0000000   0.0000000   0.0741297), wk =   0.0069444
        k(    3) = (   0.0000000   0.0000000  -0.1482593), wk =   0.0034722
        k(    4) = (   0.0000000   0.0962250   0.0000000), wk =   0.0069444
        k(    5) = (   0.0000000   0.0962250   0.0741297), wk =   0.0138889
        k(    6) = (   0.0000000   0.0962250  -0.1482593), wk =   0.0069444
        k(    7) = (   0.0000000   0.1924501   0.0000000), wk =   0.0069444
        k(    8) = (   0.0000000   0.1924501   0.0741297), wk =   0.0138889
        k(    9) = (   0.0000000   0.1924501  -0.1482593), wk =   0.0069444
        k(   10) = (   0.0000000   0.2886751   0.0000000), wk =   0.0069444
        k(   11) = (   0.0000000   0.2886751   0.0741297), wk =   0.0138889
        k(   12) = (   0.0000000   0.2886751  -0.1482593), wk =   0.0069444
        k(   13) = (   0.0000000   0.3849002   0.0000000), wk =   0.0069444
        k(   14) = (   0.0000000   0.3849002   0.0741297), wk =   0.0138889
        k(   15) = (   0.0000000   0.3849002  -0.1482593), wk =   0.0069444
        k(   16) = (   0.0000000   0.4811252   0.0000000), wk =   0.0069444
        k(   17) = (   0.0000000   0.4811252   0.0741297), wk =   0.0138889
        k(   18) = (   0.0000000   0.4811252  -0.1482593), wk =   0.0069444
        k(   19) = (   0.0000000  -0.5773503   0.0000000), wk =   0.0034722
        k(   20) = (   0.0000000  -0.5773503   0.0741297), wk =   0.0069444
        k(   21) = (   0.0000000  -0.5773503  -0.1482593), wk =   0.0034722
        k(   22) = (   0.0833333   0.1443376   0.0000000), wk =   0.0138889
        k(   23) = (   0.0833333   0.1443376   0.0741297), wk =   0.0277778
        k(   24) = (   0.0833333   0.1443376  -0.1482593), wk =   0.0138889
        k(   25) = (   0.0833333   0.2405626   0.0000000), wk =   0.0138889
        k(   26) = (   0.0833333   0.2405626   0.0741297), wk =   0.0277778
        k(   27) = (   0.0833333   0.2405626  -0.1482593), wk =   0.0138889
        k(   28) = (   0.0833333   0.3367877   0.0000000), wk =   0.0138889
        k(   29) = (   0.0833333   0.3367877   0.0741297), wk =   0.0277778
        k(   30) = (   0.0833333   0.3367877  -0.1482593), wk =   0.0138889
        k(   31) = (   0.0833333   0.4330127   0.0000000), wk =   0.0138889
        k(   32) = (   0.0833333   0.4330127   0.0741297), wk =   0.0277778
        k(   33) = (   0.0833333   0.4330127  -0.1482593), wk =   0.0138889
        k(   34) = (   0.0833333   0.5292377   0.0000000), wk =   0.0138889
        k(   35) = (   0.0833333   0.5292377   0.0741297), wk =   0.0277778
        k(   36) = (   0.0833333   0.5292377  -0.1482593), wk =   0.0138889
        k(   37) = (   0.1666667   0.2886751   0.0000000), wk =   0.0138889
        k(   38) = (   0.1666667   0.2886751   0.0741297), wk =   0.0277778
        k(   39) = (   0.1666667   0.2886751  -0.1482593), wk =   0.0138889
        k(   40) = (   0.1666667   0.3849002   0.0000000), wk =   0.0138889
        k(   41) = (   0.1666667   0.3849002   0.0741297), wk =   0.0277778
        k(   42) = (   0.1666667   0.3849002  -0.1482593), wk =   0.0138889
        k(   43) = (   0.1666667   0.4811252   0.0000000), wk =   0.0138889
        k(   44) = (   0.1666667   0.4811252   0.0741297), wk =   0.0277778
        k(   45) = (   0.1666667   0.4811252  -0.1482593), wk =   0.0138889
        k(   46) = (   0.1666667   0.5773503   0.0000000), wk =   0.0069444
        k(   47) = (   0.1666667   0.5773503   0.0741297), wk =   0.0138889
        k(   48) = (   0.1666667   0.5773503  -0.1482593), wk =   0.0069444
        k(   49) = (   0.2500000   0.4330127   0.0000000), wk =   0.0138889
        k(   50) = (   0.2500000   0.4330127   0.0741297), wk =   0.0277778
        k(   51) = (   0.2500000   0.4330127  -0.1482593), wk =   0.0138889
        k(   52) = (   0.2500000   0.5292377   0.0000000), wk =   0.0138889
        k(   53) = (   0.2500000   0.5292377   0.0741297), wk =   0.0277778
        k(   54) = (   0.2500000   0.5292377  -0.1482593), wk =   0.0138889
        k(   55) = (   0.3333333   0.5773503   0.0000000), wk =   0.0069444
        k(   56) = (   0.3333333   0.5773503   0.0741297), wk =   0.0138889
        k(   57) = (   0.3333333   0.5773503  -0.1482593), wk =   0.0069444
        k(   58) = (  -0.0833333  -0.0481125   0.0000000), wk =   0.0138889
        k(   59) = (  -0.0833333  -0.0481125  -0.0741297), wk =   0.0277778
        k(   60) = (  -0.0833333  -0.0481125   0.1482593), wk =   0.0138889
        k(   61) = (  -0.1666667  -0.0962250   0.0000000), wk =   0.0138889
        k(   62) = (  -0.1666667  -0.0962250  -0.0741297), wk =   0.0277778
        k(   63) = (  -0.1666667  -0.0962250   0.1482593), wk =   0.0138889
        k(   64) = (  -0.2500000  -0.1443376   0.0000000), wk =   0.0138889
        k(   65) = (  -0.2500000  -0.1443376  -0.0741297), wk =   0.0277778
        k(   66) = (  -0.2500000  -0.1443376   0.1482593), wk =   0.0138889
        k(   67) = (  -0.3333333  -0.1924501   0.0000000), wk =   0.0138889
        k(   68) = (  -0.3333333  -0.1924501  -0.0741297), wk =   0.0277778
        k(   69) = (  -0.3333333  -0.1924501   0.1482593), wk =   0.0138889
        k(   70) = (  -0.4166667  -0.2405626   0.0000000), wk =   0.0138889
        k(   71) = (  -0.4166667  -0.2405626  -0.0741297), wk =   0.0277778
        k(   72) = (  -0.4166667  -0.2405626   0.1482593), wk =   0.0138889
        k(   73) = (   0.5000000   0.2886751   0.0000000), wk =   0.0069444
        k(   74) = (   0.5000000   0.2886751  -0.0741297), wk =   0.0138889
        k(   75) = (   0.5000000   0.2886751   0.1482593), wk =   0.0069444
        k(   76) = (   0.1666667   0.0000000   0.0000000), wk =   0.0069444
        k(   77) = (   0.1666667   0.0000000  -0.0741297), wk =   0.0138889
        k(   78) = (   0.1666667   0.0000000   0.1482593), wk =   0.0069444
        k(   79) = (  -0.1666667  -0.1924501   0.0000000), wk =   0.0138889
        k(   80) = (   0.2500000  -0.0481125   0.0000000), wk =   0.0138889
        k(   81) = (  -0.1666667  -0.1924501  -0.0741297), wk =   0.0277778
        k(   82) = (   0.2500000  -0.0481125  -0.0741297), wk =   0.0277778
        k(   83) = (  -0.1666667  -0.1924501   0.1482593), wk =   0.0138889
        k(   84) = (   0.2500000  -0.0481125   0.1482593), wk =   0.0138889
        k(   85) = (  -0.2500000  -0.2405626   0.0000000), wk =   0.0138889
        k(   86) = (   0.3333333  -0.0962250   0.0000000), wk =   0.0138889
        k(   87) = (  -0.2500000  -0.2405626  -0.0741297), wk =   0.0277778
        k(   88) = (   0.3333333  -0.0962250  -0.0741297), wk =   0.0277778
        k(   89) = (  -0.2500000  -0.2405626   0.1482593), wk =   0.0138889
        k(   90) = (   0.3333333  -0.0962250   0.1482593), wk =   0.0138889
        k(   91) = (  -0.3333333  -0.2886751   0.0000000), wk =   0.0138889
        k(   92) = (   0.4166667  -0.1443376   0.0000000), wk =   0.0138889
        k(   93) = (  -0.3333333  -0.2886751  -0.0741297), wk =   0.0277778
        k(   94) = (   0.4166667  -0.1443376  -0.0741297), wk =   0.0277778
        k(   95) = (  -0.3333333  -0.2886751   0.1482593), wk =   0.0138889
        k(   96) = (   0.4166667  -0.1443376   0.1482593), wk =   0.0138889
        k(   97) = (  -0.4166667  -0.3367877   0.0000000), wk =   0.0138889
        k(   98) = (   0.5000000  -0.1924501   0.0000000), wk =   0.0138889
        k(   99) = (  -0.4166667  -0.3367877  -0.0741297), wk =   0.0277778
        k(  100) = (   0.5000000  -0.1924501  -0.0741297), wk =   0.0277778
        k(  101) = (  -0.4166667  -0.3367877   0.1482593), wk =   0.0138889
        k(  102) = (   0.5000000  -0.1924501   0.1482593), wk =   0.0138889
        k(  103) = (   0.3333333   0.0000000   0.0000000), wk =   0.0069444
        k(  104) = (   0.3333333   0.0000000  -0.0741297), wk =   0.0138889
        k(  105) = (   0.3333333   0.0000000   0.1482593), wk =   0.0069444
        k(  106) = (  -0.2500000  -0.3367877   0.0000000), wk =   0.0138889
        k(  107) = (   0.4166667  -0.0481125   0.0000000), wk =   0.0138889
        k(  108) = (  -0.2500000  -0.3367877  -0.0741297), wk =   0.0277778
        k(  109) = (   0.4166667  -0.0481125  -0.0741297), wk =   0.0277778
        k(  110) = (  -0.2500000  -0.3367877   0.1482593), wk =   0.0138889
        k(  111) = (   0.4166667  -0.0481125   0.1482593), wk =   0.0138889
        k(  112) = (  -0.3333333  -0.3849002   0.0000000), wk =   0.0138889
        k(  113) = (   0.5000000  -0.0962250   0.0000000), wk =   0.0138889
        k(  114) = (  -0.3333333  -0.3849002  -0.0741297), wk =   0.0277778
        k(  115) = (   0.5000000  -0.0962250  -0.0741297), wk =   0.0277778
        k(  116) = (  -0.3333333  -0.3849002   0.1482593), wk =   0.0138889
        k(  117) = (   0.5000000  -0.0962250   0.1482593), wk =   0.0138889
        k(  118) = (  -0.4166667  -0.4330127   0.0000000), wk =   0.0138889
        k(  119) = (  -0.4166667  -0.4330127  -0.0741297), wk =   0.0277778
        k(  120) = (  -0.4166667  -0.4330127   0.1482593), wk =   0.0138889
        k(  121) = (   0.5000000  -0.0000000   0.0000000), wk =   0.0069444
        k(  122) = (   0.5000000  -0.0000000  -0.0741297), wk =   0.0138889
        k(  123) = (   0.5000000  -0.0000000   0.1482593), wk =   0.0069444
        k(  124) = (  -0.3333333  -0.4811252   0.0000000), wk =   0.0138889
        k(  125) = (   0.5833333  -0.0481125   0.0000000), wk =   0.0138889
        k(  126) = (  -0.3333333  -0.4811252  -0.0741297), wk =   0.0277778
        k(  127) = (   0.5833333  -0.0481125  -0.0741297), wk =   0.0277778
        k(  128) = (  -0.3333333  -0.4811252   0.1482593), wk =   0.0138889
        k(  129) = (   0.5833333  -0.0481125   0.1482593), wk =   0.0138889

                       cryst. coord.
        k(    1) = (   0.0000000   0.0000000   0.0000000), wk =   0.0034722
        k(    2) = (   0.0000000   0.0000000   0.2500000), wk =   0.0069444
        k(    3) = (   0.0000000   0.0000000  -0.5000000), wk =   0.0034722
        k(    4) = (   0.0000000   0.0833333   0.0000000), wk =   0.0069444
        k(    5) = (   0.0000000   0.0833333   0.2500000), wk =   0.0138889
        k(    6) = (   0.0000000   0.0833333  -0.5000000), wk =   0.0069444
        k(    7) = (   0.0000000   0.1666667   0.0000000), wk =   0.0069444
        k(    8) = (   0.0000000   0.1666667   0.2500000), wk =   0.0138889
        k(    9) = (   0.0000000   0.1666667  -0.5000000), wk =   0.0069444
        k(   10) = (   0.0000000   0.2500000   0.0000000), wk =   0.0069444
        k(   11) = (   0.0000000   0.2500000   0.2500000), wk =   0.0138889
        k(   12) = (   0.0000000   0.2500000  -0.5000000), wk =   0.0069444
        k(   13) = (   0.0000000   0.3333333   0.0000000), wk =   0.0069444
        k(   14) = (   0.0000000   0.3333333   0.2500000), wk =   0.0138889
        k(   15) = (   0.0000000   0.3333333  -0.5000000), wk =   0.0069444
        k(   16) = (   0.0000000   0.4166667   0.0000000), wk =   0.0069444
        k(   17) = (   0.0000000   0.4166667   0.2500000), wk =   0.0138889
        k(   18) = (   0.0000000   0.4166667  -0.5000000), wk =   0.0069444
        k(   19) = (   0.0000000  -0.5000000   0.0000000), wk =   0.0034722
        k(   20) = (   0.0000000  -0.5000000   0.2500000), wk =   0.0069444
        k(   21) = (   0.0000000  -0.5000000  -0.5000000), wk =   0.0034722
        k(   22) = (   0.0833333   0.0833333   0.0000000), wk =   0.0138889
        k(   23) = (   0.0833333   0.0833333   0.2500000), wk =   0.0277778
        k(   24) = (   0.0833333   0.0833333  -0.5000000), wk =   0.0138889
        k(   25) = (   0.0833333   0.1666667   0.0000000), wk =   0.0138889
        k(   26) = (   0.0833333   0.1666667   0.2500000), wk =   0.0277778
        k(   27) = (   0.0833333   0.1666667  -0.5000000), wk =   0.0138889
        k(   28) = (   0.0833333   0.2500000   0.0000000), wk =   0.0138889
        k(   29) = (   0.0833333   0.2500000   0.2500000), wk =   0.0277778
        k(   30) = (   0.0833333   0.2500000  -0.5000000), wk =   0.0138889
        k(   31) = (   0.0833333   0.3333333   0.0000000), wk =   0.0138889
        k(   32) = (   0.0833333   0.3333333   0.2500000), wk =   0.0277778
        k(   33) = (   0.0833333   0.3333333  -0.5000000), wk =   0.0138889
        k(   34) = (   0.0833333   0.4166667   0.0000000), wk =   0.0138889
        k(   35) = (   0.0833333   0.4166667   0.2500000), wk =   0.0277778
        k(   36) = (   0.0833333   0.4166667  -0.5000000), wk =   0.0138889
        k(   37) = (   0.1666667   0.1666667   0.0000000), wk =   0.0138889
        k(   38) = (   0.1666667   0.1666667   0.2500000), wk =   0.0277778
        k(   39) = (   0.1666667   0.1666667  -0.5000000), wk =   0.0138889
        k(   40) = (   0.1666667   0.2500000   0.0000000), wk =   0.0138889
        k(   41) = (   0.1666667   0.2500000   0.2500000), wk =   0.0277778
        k(   42) = (   0.1666667   0.2500000  -0.5000000), wk =   0.0138889
        k(   43) = (   0.1666667   0.3333333   0.0000000), wk =   0.0138889
        k(   44) = (   0.1666667   0.3333333   0.2500000), wk =   0.0277778
        k(   45) = (   0.1666667   0.3333333  -0.5000000), wk =   0.0138889
        k(   46) = (   0.1666667   0.4166667   0.0000000), wk =   0.0069444
        k(   47) = (   0.1666667   0.4166667   0.2500000), wk =   0.0138889
        k(   48) = (   0.1666667   0.4166667  -0.5000000), wk =   0.0069444
        k(   49) = (   0.2500000   0.2500000   0.0000000), wk =   0.0138889
        k(   50) = (   0.2500000   0.2500000   0.2500000), wk =   0.0277778
        k(   51) = (   0.2500000   0.2500000  -0.5000000), wk =   0.0138889
        k(   52) = (   0.2500000   0.3333333   0.0000000), wk =   0.0138889
        k(   53) = (   0.2500000   0.3333333   0.2500000), wk =   0.0277778
        k(   54) = (   0.2500000   0.3333333  -0.5000000), wk =   0.0138889
        k(   55) = (   0.3333333   0.3333333   0.0000000), wk =   0.0069444
        k(   56) = (   0.3333333   0.3333333   0.2500000), wk =   0.0138889
        k(   57) = (   0.3333333   0.3333333  -0.5000000), wk =   0.0069444
        k(   58) = (  -0.0833333  -0.0000000   0.0000000), wk =   0.0138889
        k(   59) = (  -0.0833333  -0.0000000  -0.2500000), wk =   0.0277778
        k(   60) = (  -0.0833333  -0.0000000   0.5000000), wk =   0.0138889
        k(   61) = (  -0.1666667  -0.0000000   0.0000000), wk =   0.0138889
        k(   62) = (  -0.1666667  -0.0000000  -0.2500000), wk =   0.0277778
        k(   63) = (  -0.1666667  -0.0000000   0.5000000), wk =   0.0138889
        k(   64) = (  -0.2500000   0.0000000   0.0000000), wk =   0.0138889
        k(   65) = (  -0.2500000   0.0000000  -0.2500000), wk =   0.0277778
        k(   66) = (  -0.2500000   0.0000000   0.5000000), wk =   0.0138889
        k(   67) = (  -0.3333333  -0.0000000   0.0000000), wk =   0.0138889
        k(   68) = (  -0.3333333  -0.0000000  -0.2500000), wk =   0.0277778
        k(   69) = (  -0.3333333  -0.0000000   0.5000000), wk =   0.0138889
        k(   70) = (  -0.4166667   0.0000000   0.0000000), wk =   0.0138889
        k(   71) = (  -0.4166667   0.0000000  -0.2500000), wk =   0.0277778
        k(   72) = (  -0.4166667   0.0000000   0.5000000), wk =   0.0138889
        k(   73) = (   0.5000000   0.0000000   0.0000000), wk =   0.0069444
        k(   74) = (   0.5000000   0.0000000  -0.2500000), wk =   0.0138889
        k(   75) = (   0.5000000   0.0000000   0.5000000), wk =   0.0069444
        k(   76) = (   0.1666667  -0.0833333   0.0000000), wk =   0.0069444
        k(   77) = (   0.1666667  -0.0833333  -0.2500000), wk =   0.0138889
        k(   78) = (   0.1666667  -0.0833333   0.5000000), wk =   0.0069444
        k(   79) = (  -0.1666667  -0.0833333   0.0000000), wk =   0.0138889
        k(   80) = (   0.2500000  -0.1666667   0.0000000), wk =   0.0138889
        k(   81) = (  -0.1666667  -0.0833333  -0.2500000), wk =   0.0277778
        k(   82) = (   0.2500000  -0.1666667  -0.2500000), wk =   0.0277778
        k(   83) = (  -0.1666667  -0.0833333   0.5000000), wk =   0.0138889
        k(   84) = (   0.2500000  -0.1666667   0.5000000), wk =   0.0138889
        k(   85) = (  -0.2500000  -0.0833333   0.0000000), wk =   0.0138889
        k(   86) = (   0.3333333  -0.2500000   0.0000000), wk =   0.0138889
        k(   87) = (  -0.2500000  -0.0833333  -0.2500000), wk =   0.0277778
        k(   88) = (   0.3333333  -0.2500000  -0.2500000), wk =   0.0277778
        k(   89) = (  -0.2500000  -0.0833333   0.5000000), wk =   0.0138889
        k(   90) = (   0.3333333  -0.2500000   0.5000000), wk =   0.0138889
        k(   91) = (  -0.3333333  -0.0833333   0.0000000), wk =   0.0138889
        k(   92) = (   0.4166667  -0.3333333   0.0000000), wk =   0.0138889
        k(   93) = (  -0.3333333  -0.0833333  -0.2500000), wk =   0.0277778
        k(   94) = (   0.4166667  -0.3333333  -0.2500000), wk =   0.0277778
        k(   95) = (  -0.3333333  -0.0833333   0.5000000), wk =   0.0138889
        k(   96) = (   0.4166667  -0.3333333   0.5000000), wk =   0.0138889
        k(   97) = (  -0.4166667  -0.0833333   0.0000000), wk =   0.0138889
        k(   98) = (   0.5000000  -0.4166667   0.0000000), wk =   0.0138889
        k(   99) = (  -0.4166667  -0.0833333  -0.2500000), wk =   0.0277778
        k(  100) = (   0.5000000  -0.4166667  -0.2500000), wk =   0.0277778
        k(  101) = (  -0.4166667  -0.0833333   0.5000000), wk =   0.0138889
        k(  102) = (   0.5000000  -0.4166667   0.5000000), wk =   0.0138889
        k(  103) = (   0.3333333  -0.1666667   0.0000000), wk =   0.0069444
        k(  104) = (   0.3333333  -0.1666667  -0.2500000), wk =   0.0138889
        k(  105) = (   0.3333333  -0.1666667   0.5000000), wk =   0.0069444
        k(  106) = (  -0.2500000  -0.1666667   0.0000000), wk =   0.0138889
        k(  107) = (   0.4166667  -0.2500000   0.0000000), wk =   0.0138889
        k(  108) = (  -0.2500000  -0.1666667  -0.2500000), wk =   0.0277778
        k(  109) = (   0.4166667  -0.2500000  -0.2500000), wk =   0.0277778
        k(  110) = (  -0.2500000  -0.1666667   0.5000000), wk =   0.0138889
        k(  111) = (   0.4166667  -0.2500000   0.5000000), wk =   0.0138889
        k(  112) = (  -0.3333333  -0.1666667   0.0000000), wk =   0.0138889
        k(  113) = (   0.5000000  -0.3333333   0.0000000), wk =   0.0138889
        k(  114) = (  -0.3333333  -0.1666667  -0.2500000), wk =   0.0277778
        k(  115) = (   0.5000000  -0.3333333  -0.2500000), wk =   0.0277778
        k(  116) = (  -0.3333333  -0.1666667   0.5000000), wk =   0.0138889
        k(  117) = (   0.5000000  -0.3333333   0.5000000), wk =   0.0138889
        k(  118) = (  -0.4166667  -0.1666667   0.0000000), wk =   0.0138889
        k(  119) = (  -0.4166667  -0.1666667  -0.2500000), wk =   0.0277778
        k(  120) = (  -0.4166667  -0.1666667   0.5000000), wk =   0.0138889
        k(  121) = (   0.5000000  -0.2500000   0.0000000), wk =   0.0069444
        k(  122) = (   0.5000000  -0.2500000  -0.2500000), wk =   0.0138889
        k(  123) = (   0.5000000  -0.2500000   0.5000000), wk =   0.0069444
        k(  124) = (  -0.3333333  -0.2500000   0.0000000), wk =   0.0138889
        k(  125) = (   0.5833333  -0.3333333   0.0000000), wk =   0.0138889
        k(  126) = (  -0.3333333  -0.2500000  -0.2500000), wk =   0.0277778
        k(  127) = (   0.5833333  -0.3333333  -0.2500000), wk =   0.0277778
        k(  128) = (  -0.3333333  -0.2500000   0.5000000), wk =   0.0138889
        k(  129) = (   0.5833333  -0.3333333   0.5000000), wk =   0.0138889

     Dense  grid:    34301 G-vectors     FFT dimensions: (  30,  30,  96)

     Smooth grid:    12031 G-vectors     FFT dimensions: (  20,  20,  72)

     Dynamical RAM for                 wfc:       0.28 MB

     Dynamical RAM for     wfc (w. buffer):      36.04 MB

     Dynamical RAM for           str. fact:       0.52 MB

     Dynamical RAM for           local pot:       0.00 MB

     Dynamical RAM for          nlocal pot:       0.74 MB

     Dynamical RAM for                qrad:       0.44 MB

     Dynamical RAM for          rho,v,vnew:       3.55 MB

     Dynamical RAM for               rhoin:       1.18 MB

     Dynamical RAM for            rho*nmix:       8.37 MB

     Dynamical RAM for           G-vectors:       2.05 MB

     Dynamical RAM for          h,s,v(r/c):       0.03 MB

     Dynamical RAM for          <psi|beta>:       0.01 MB

     Dynamical RAM for                 psi:       0.55 MB

     Dynamical RAM for                hpsi:       0.55 MB

     Dynamical RAM for                spsi:       0.55 MB

     Dynamical RAM for      wfcinit/wfcrot:       0.75 MB

     Dynamical RAM for           addusdens:      24.60 MB

     Dynamical RAM for          addusforce:      28.00 MB

     Dynamical RAM for         addusstress:      26.17 MB

     Estimated static dynamical RAM per process >      57.24 MB

     Estimated max dynamical RAM per process >      85.24 MB

     Check: negative core charge=   -0.000010

     Initial potential from superposition of free atoms

     starting charge   15.99983, renormalised to   16.00000
     Starting wfcs are   16 randomized atomic wfcs

     total cpu time spent up to now is        5.9 secs

     Self-consistent Calculation

     iteration #  1     ecut=    45.00 Ry     beta= 0.70
     Davidson diagonalization with overlap
     ethr =  1.00E-02,  avg # of iterations =  2.8

     total cpu time spent up to now is       17.2 secs

     total energy              =     -49.66257048 Ry
     estimated scf accuracy    <       0.37710585 Ry

     iteration #  2     ecut=    45.00 Ry     beta= 0.70
     Davidson diagonalization with overlap
     ethr =  2.36E-03,  avg # of iterations =  2.4

     total cpu time spent up to now is       29.5 secs

     total energy              =     -49.71367280 Ry
     estimated scf accuracy    <       0.00436804 Ry

     iteration #  3     ecut=    45.00 Ry     beta= 0.70
     Davidson diagonalization with overlap
     c_bands:  1 eigenvalues not converged
     ethr =  2.73E-05,  avg # of iterations =  7.0

     total cpu time spent up to now is       43.2 secs

     total energy              =     -49.71404657 Ry
     estimated scf accuracy    <       0.00031148 Ry

     iteration #  4     ecut=    45.00 Ry     beta= 0.70
     Davidson diagonalization with overlap
     ethr =  1.95E-06,  avg # of iterations =  4.0

     total cpu time spent up to now is       52.0 secs

     total energy              =     -49.71406411 Ry
     estimated scf accuracy    <       0.00000200 Ry

     iteration #  5     ecut=    45.00 Ry     beta= 0.70
     Davidson diagonalization with overlap
     ethr =  1.25E-08,  avg # of iterations =  2.9

     total cpu time spent up to now is       66.9 secs

     total energy              =     -49.71406522 Ry
     estimated scf accuracy    <       0.00000006 Ry

     iteration #  6     ecut=    45.00 Ry     beta= 0.70
     Davidson diagonalization with overlap
     ethr =  3.86E-10,  avg # of iterations =  2.2

     total cpu time spent up to now is       78.8 secs

     total energy              =     -49.71406523 Ry
     estimated scf accuracy    <       0.00000001 Ry

     iteration #  7     ecut=    45.00 Ry     beta= 0.70
     Davidson diagonalization with overlap
     ethr =  7.56E-11,  avg # of iterations =  1.7

     total cpu time spent up to now is       89.7 secs

     End of self-consistent calculation

          k = 0.0000 0.0000 0.0000 (  1497 PWs)   bands (ev):

   -14.7000 -14.6547  -3.0620  -2.4980   1.7290   1.7305   1.7333   1.7348
     7.9712  13.0933  13.0990  13.0999

     occupation numbers 
     1.0000   1.0000   1.0000   1.0000   1.0000   1.0000   1.0000   1.0000
    -0.0000  -0.0000  -0.0000  -0.0000

          k = 0.0000 0.0000 0.0741 (  1480 PWs)   bands (ev):

   -14.6933 -14.6614  -2.9858  -2.5878   1.7292   1.7303   1.7335   1.7346
     8.3338  10.6648  13.0950  13.0995

     occupation numbers 
     1.0000   1.0000   1.0000   1.0000   1.0000   1.0000   1.0000   1.0000
    -0.0000  -0.0000  -0.0000  -0.0000

          k = 0.0000 0.0000-0.1483 (  1450 PWs)   bands (ev):

   -14.6773 -14.6773  -2.7934  -2.7934   1.7298   1.7298   1.7341   1.7341
     9.3282   9.3282  13.0966  13.0967

     occupation numbers 
     1.0000   1.0000   1.0000   1.0000   1.0000   1.0000   1.0000   1.0000
    -0.0000  -0.0000  -0.0000  -0.0000

          k = 0.0000 0.0962 0.0000 (  1493 PWs)   bands (ev):

   -14.5364 -14.4917  -2.8646  -2.3054   1.0800   1.0831   1.3960   1.3984
     8.1837  11.6853  13.1510  13.1759

     occupation numbers 
     1.0000   1.0000   1.0000   1.0000   1.0000   1.0000   1.0000   1.0000
    -0.0000  -0.0000  -0.0000  -0.0000

          k = 0.0000 0.0962 0.0741 (  1489 PWs)   bands (ev):

   -14.5299 -14.4984  -2.7889  -2.3943   1.0805   1.0827   1.3963   1.3981
     8.5444  10.8630  13.1618  13.1743

     occupation numbers 
     1.0000   1.0000   1.0000   1.0000   1.0000   1.0000   1.0000   1.0000
    -0.0000  -0.0000  -0.0000  -0.0000

          k = 0.0000 0.0962-0.1483 (  1486 PWs)   bands (ev):

   -14.5142 -14.5142  -2.5982  -2.5982   1.0816   1.0816   1.3972   1.3972
     9.5335   9.5335  13.1698  13.1698

     occupation numbers 
     1.0000   1.0000   1.0000   1.0000   1.0000   1.0000   1.0000   1.0000
    -0.0000  -0.0000  -0.0000  -0.0000

          k = 0.0000 0.1925 0.0000 (  1503 PWs)   bands (ev):

   -14.0477 -14.0047  -2.2772  -1.7330  -0.5533  -0.5466   0.6061   0.6098
     8.8216  12.2527  13.0755  13.1298

     occupation numbers 
     1.0000   1.0000   1.0000   1.0000   1.0000   1.0000   1.0000   1.0000
    -0.0000  -0.0000  -0.0000  -0.0000

          k = 0.0000 0.1925 0.0741 (  1496 PWs)   bands (ev):

   -14.0414 -14.0110  -2.2034  -1.8194  -0.5523  -0.5476   0.6067   0.6093
     9.1759  11.4482  13.1011  13.1269

     occupation numbers 
     1.0000   1.0000   1.0000   1.0000   1.0000   1.0000   1.0000   1.0000
    -0.0000  -0.0000  -0.0000  -0.0000

          k = 0.0000 0.1925-0.1483 (  1490 PWs)   bands (ev):

   -14.0263 -14.0263  -2.0176  -2.0176  -0.5500  -0.5500   0.6080   0.6080
    10.1470  10.1470  13.1174  13.1174

     occupation numbers 
     1.0000   1.0000   1.0000   1.0000   1.0000   1.0000   1.0000   1.0000
    -0.0000  -0.0000  -0.0000  -0.0000

          k = 0.0000 0.2887 0.0000 (  1497 PWs)   bands (ev):

   -13.2394 -13.1993  -2.6460  -2.6345  -1.3178  -0.8016  -0.2710  -0.2665
     9.8820  11.9186  12.0379  12.7879

     occupation numbers 
     1.0000   1.0000   1.0000   1.0000   1.0000   1.0000   1.0000   1.0000
    -0.0000  -0.0000  -0.0000  -0.0000

          k = 0.0000 0.2887 0.0741 (  1502 PWs)   bands (ev):

   -13.2336 -13.2053  -2.6443  -2.6362  -1.2475  -0.8831  -0.2703  -0.2672
    10.2189  11.8847  12.0067  12.5409

     occupation numbers 
     1.0000   1.0000   1.0000   1.0000   1.0000   1.0000   1.0000   1.0000
    -0.0000  -0.0000  -0.0000  -0.0000

          k = 0.0000 0.2887-0.1483 (  1508 PWs)   bands (ev):

   -13.2195 -13.2195  -2.6403  -2.6403  -1.0709  -1.0709  -0.2687  -0.2687
    11.1180  11.1180  12.0690  12.0691

     occupation numbers 
     1.0000   1.0000   1.0000   1.0000   1.0000   1.0000   1.0000   1.0000
    -0.0000  -0.0000  -0.0000  -0.0000

          k = 0.0000 0.3849 0.0000 (  1504 PWs)   bands (ev):

   -12.1241 -12.0876  -4.8430  -4.8265  -1.0023  -0.9974  -0.0331   0.4347
     9.5908   9.8067  11.3484  12.4544

     occupation numbers 
     1.0000   1.0000   1.0000   1.0000   1.0000   1.0000   1.0000   1.0000
    -0.0000  -0.0000  -0.0000  -0.0000

          k = 0.0000 0.3849 0.0741 (  1509 PWs)   bands (ev):

   -12.1188 -12.0930  -4.8406  -4.8290  -1.0016  -0.9981   0.0311   0.3614
     9.6134   9.7672  11.6827  12.4542

     occupation numbers 
     1.0000   1.0000   1.0000   1.0000   1.0000   1.0000   1.0000   1.0000
    -0.0000  -0.0000  -0.0000  -0.0000

          k = 0.0000 0.3849-0.1483 (  1502 PWs)   bands (ev):

   -12.1059 -12.1059  -4.8348  -4.8348  -0.9998  -0.9998   0.1917   0.1917
     9.6828   9.6828  12.3711  12.3712

     occupation numbers 
     1.0000   1.0000   1.0000   1.0000   1.0000   1.0000   1.0000   1.0000
    -0.0000  -0.0000  -0.0000  -0.0000

          k = 0.0000 0.4811 0.0000 (  1508 PWs)   bands (ev):

   -10.7327 -10.7012  -6.9363  -6.9151  -1.4739  -1.4688   1.4285   1.7961
     7.4410   7.7133  12.2039  12.2611

     occupation numbers 
     1.0000   1.0000   1.0000   1.0000   1.0000   1.0000   1.0000   1.0000
    -0.0000  -0.0000  -0.0000  -0.0000

          k = 0.0000 0.4811 0.0741 (  1510 PWs)   bands (ev):

   -10.7281 -10.7058  -6.9332  -6.9182  -1.4732  -1.4696   1.4801   1.7399
     7.4742   7.6667  12.2137  12.2545

     occupation numbers 
     1.0000   1.0000   1.0000   1.0000   1.0000   1.0000   1.0000   1.0000
    -0.0000  -0.0000  -0.0000  -0.0000

          k = 0.0000 0.4811-0.1483 (  1500 PWs)   bands (ev):

   -10.7170 -10.7170  -6.9257  -6.9257  -1.4714  -1.4714   1.6078   1.6078
     7.5639   7.5639  12.2354  12.2354

     occupation numbers 
     1.0000   1.0000   1.0000   1.0000   1.0000   1.0000   1.0000   1.0000
    -0.0000  -0.0000  -0.0000  -0.0000

          k = 0.0000-0.5774 0.0000 (  1508 PWs)   bands (ev):

    -9.4712  -9.4562  -8.4268  -8.4148  -1.6359  -1.6307   2.3585   2.5313
     6.3743   6.6120  12.1216  12.1876

     occupation numbers 
     1.0000   1.0000   1.0000   1.0000   1.0000   1.0000   1.0000   1.0000
    -0.0028  -0.0006  -0.0000  -0.0000

          k = 0.0000-0.5774 0.0741 (  1520 PWs)   bands (ev):

    -9.4690  -9.4584  -8.4251  -8.4167  -1.6351  -1.6314   2.3853   2.5077
     6.3990   6.5670  12.1312  12.1779

     occupation numbers 
     1.0000   1.0000   1.0000   1.0000   1.0000   1.0000   1.0000   1.0000
    -0.0024  -0.0008  -0.0000  -0.0000

          k = 0.0000-0.5774-0.1483 (  1520 PWs)   bands (ev):

    -9.4637  -9.4637  -8.4210  -8.4210  -1.6333  -1.6333   2.4480   2.4480
     6.4730   6.4730  12.1545  12.1545

     occupation numbers 
     1.0000   1.0000   1.0000   1.0000   1.0000   1.0000   1.0000   1.0000
    -0.0015  -0.0015  -0.0000  -0.0000

          k = 0.0833 0.1443 0.0000 (  1505 PWs)   bands (ev):

   -14.2103 -14.1668  -2.4721  -1.9228   0.0502   0.0533   0.7213   0.7235
     8.6094  12.0699  13.4290  13.4793

     occupation numbers 
     1.0000   1.0000   1.0000   1.0000   1.0000   1.0000   1.0000   1.0000
    -0.0000  -0.0000  -0.0000  -0.0000

          k = 0.0833 0.1443 0.0741 (  1502 PWs)   bands (ev):

   -14.2039 -14.1732  -2.3976  -2.0100   0.0507   0.0529   0.7216   0.7231
     8.9661  11.2573  13.4528  13.4765

     occupation numbers 
     1.0000   1.0000   1.0000   1.0000   1.0000   1.0000   1.0000   1.0000
    -0.0000  -0.0000  -0.0000  -0.0000

          k = 0.0833 0.1443-0.1483 (  1500 PWs)   bands (ev):

   -14.1887 -14.1887  -2.2101  -2.2101   0.0518   0.0518   0.7224   0.7224
     9.9441   9.9441  13.4684  13.4685

     occupation numbers 
     1.0000   1.0000   1.0000   1.0000   1.0000   1.0000   1.0000   1.0000
    -0.0000  -0.0000  -0.0000  -0.0000

          k = 0.0833 0.2406 0.0000 (  1500 PWs)   bands (ev):

   -13.5618 -13.5205  -1.6976  -1.6562  -1.6487  -1.1696  -0.2730  -0.2686
     9.4603  12.6995  12.8145  13.0104

     occupation numbers 
     1.0000   1.0000   1.0000   1.0000   1.0000   1.0000   1.0000   1.0000
    -0.0000  -0.0000  -0.0000  -0.0000

          k = 0.0833 0.2406 0.0741 (  1503 PWs)   bands (ev):

   -13.5558 -13.5266  -1.6551  -1.6499  -1.6258  -1.2531  -0.2723  -0.2693
     9.8074  12.0164  12.8187  12.9007

     occupation numbers 
     1.0000   1.0000   1.0000   1.0000   1.0000   1.0000   1.0000   1.0000
    -0.0000  -0.0000  -0.0000  -0.0000

          k = 0.0833 0.2406-0.1483 (  1506 PWs)   bands (ev):

   -13.5413 -13.5413  -1.6525  -1.6525  -1.4453  -1.4453  -0.2708  -0.2708
    10.7572  10.7573  12.8532  12.8534

     occupation numbers 
     1.0000   1.0000   1.0000   1.0000   1.0000   1.0000   1.0000   1.0000
    -0.0000  -0.0000  -0.0000  -0.0000

          k = 0.0833 0.3368 0.0000 (  1514 PWs)   bands (ev):

   -12.5999 -12.5618  -3.7237  -3.7106  -1.1572  -1.1512  -0.5698  -0.0785
    10.6313  10.7299  10.7832  13.3097

     occupation numbers 
     1.0000   1.0000   1.0000   1.0000   1.0000   1.0000   1.0000   1.0000
    -0.0000  -0.0000  -0.0000  -0.0000

          k = 0.0833 0.3368 0.0741 (  1506 PWs)   bands (ev):

   -12.5944 -12.5675  -3.7218  -3.7125  -1.1563  -1.1521  -0.5026  -0.1557
    10.6291  10.7493  11.0960  13.1314

     occupation numbers 
     1.0000   1.0000   1.0000   1.0000   1.0000   1.0000   1.0000   1.0000
    -0.0000  -0.0000  -0.0000  -0.0000

          k = 0.0833 0.3368-0.1483 (  1504 PWs)   bands (ev):

   -12.5810 -12.5810  -3.7172  -3.7172  -1.1542  -1.1542  -0.3342  -0.3342
    10.6858  10.6858  12.0049  12.0049

     occupation numbers 
     1.0000   1.0000   1.0000   1.0000   1.0000   1.0000   1.0000   1.0000
    -0.0000  -0.0000  -0.0000  -0.0000

          k = 0.0833 0.4330 0.0000 (  1522 PWs)   bands (ev):

   -11.3434 -11.3096  -5.8402  -5.8218  -1.7907  -1.7839   0.8337   1.2589
     8.3983   8.6297  12.3878  13.0280

     occupation numbers 
     1.0000   1.0000   1.0000   1.0000   1.0000   1.0000   1.0000   1.0000
    -0.0000  -0.0000  -0.0000  -0.0000

          k = 0.0833 0.4330 0.0741 (  1517 PWs)   bands (ev):

   -11.3385 -11.3146  -5.8375  -5.8245  -1.7896  -1.7849   0.8925   1.1929
     8.4273   8.5913  12.6785  13.0337

     occupation numbers 
     1.0000   1.0000   1.0000   1.0000   1.0000   1.0000   1.0000   1.0000
    -0.0000  -0.0000  -0.0000  -0.0000

          k = 0.0833 0.4330-0.1483 (  1514 PWs)   bands (ev):

   -11.3265 -11.3265  -5.8310  -5.8310  -1.7873  -1.7873   1.0391   1.0391
     8.5047   8.5047  13.0196  13.0196

     occupation numbers 
     1.0000   1.0000   1.0000   1.0000   1.0000   1.0000   1.0000   1.0000
    -0.0000  -0.0000  -0.0000  -0.0000

          k = 0.0833 0.5292 0.0000 (  1524 PWs)   bands (ev):

    -9.8689  -9.8418  -7.7731  -7.7518  -2.1184  -2.1112   2.2093   2.4752
     6.6426   6.8815  12.8515  12.9265

     occupation numbers 
     1.0000   1.0000   1.0000   1.0000   1.0000   1.0000   1.0000   1.0000
    -0.0005  -0.0001  -0.0000  -0.0000

          k = 0.0833 0.5292 0.0741 (  1515 PWs)   bands (ev):

    -9.8649  -9.8458  -7.7700  -7.7549  -2.1173  -2.1123   2.2481   2.4362
     6.6700   6.8391  12.8626  12.9156

     occupation numbers 
     1.0000   1.0000   1.0000   1.0000   1.0000   1.0000   1.0000   1.0000
    -0.0004  -0.0001  -0.0000  -0.0000

          k = 0.0833 0.5292-0.1483 (  1524 PWs)   bands (ev):

    -9.8554  -9.8554  -7.7625  -7.7625  -2.1148  -2.1148   2.3420   2.3420
     6.7471   6.7471  12.8890  12.8890

     occupation numbers 
     1.0000   1.0000   1.0000   1.0000   1.0000   1.0000   1.0000   1.0000
    -0.0002  -0.0002  -0.0000  -0.0000

          k = 0.1667 0.2887 0.0000 (  1509 PWs)   bands (ev):

   -12.7596 -12.7210  -2.9825  -2.9764  -1.6280  -1.6235  -0.7513  -0.2524
    10.5222  11.0961  11.1966  13.6818

     occupation numbers 
     1.0000   1.0000   1.0000   1.0000   1.0000   1.0000   1.0000   1.0000
    -0.0000  -0.0000  -0.0000  -0.0000

          k = 0.1667 0.2887 0.0741 (  1516 PWs)   bands (ev):

   -12.7540 -12.7267  -2.9816  -2.9773  -1.6273  -1.6242  -0.6832  -0.3310
    10.8550  11.1107  11.1819  12.9636

     occupation numbers 
     1.0000   1.0000   1.0000   1.0000   1.0000   1.0000   1.0000   1.0000
    -0.0000  -0.0000  -0.0000  -0.0000

          k = 0.1667 0.2887-0.1483 (  1518 PWs)   bands (ev):

   -12.7404 -12.7404  -2.9795  -2.9795  -1.6258  -1.6258  -0.5123  -0.5123
    11.1459  11.1459  11.7645  11.7645

     occupation numbers 
     1.0000   1.0000   1.0000   1.0000   1.0000   1.0000   1.0000   1.0000
    -0.0000  -0.0000  -0.0000  -0.0000

          k = 0.1667 0.3849 0.0000 (  1517 PWs)   bands (ev):

   -11.6550 -11.6202  -4.7062  -4.6936  -2.6821  -2.6739   0.5183   0.9689
     9.1402   9.2837  11.9938  14.9264

     occupation numbers 
     1.0000   1.0000   1.0000   1.0000   1.0000   1.0000   1.0000   1.0000
    -0.0000  -0.0000  -0.0000  -0.0000

          k = 0.1667 0.3849 0.0741 (  1515 PWs)   bands (ev):

   -11.6500 -11.6253  -4.7043  -4.6954  -2.6809  -2.6751   0.5803   0.8985
     9.1600   9.2617  12.3004  14.1627

     occupation numbers 
     1.0000   1.0000   1.0000   1.0000   1.0000   1.0000   1.0000   1.0000
    -0.0000  -0.0000  -0.0000  -0.0000

          k = 0.1667 0.3849-0.1483 (  1524 PWs)   bands (ev):

   -11.6377 -11.6377  -4.6999  -4.6999  -2.6780  -2.6780   0.7352   0.7352
     9.2099   9.2099  13.1242  13.1243

     occupation numbers 
     1.0000   1.0000   1.0000   1.0000   1.0000   1.0000   1.0000   1.0000
    -0.0000  -0.0000  -0.0000  -0.0000

          k = 0.1667 0.4811 0.0000 (  1522 PWs)   bands (ev):

   -10.2836 -10.2536  -6.6106  -6.5917  -3.2581  -3.2477   1.9805   2.3391
     7.2170   7.4108  13.8408  14.7162

     occupation numbers 
     1.0000   1.0000   1.0000   1.0000   1.0000   1.0000   1.0000   1.0000
    -0.0000  -0.0000  -0.0000  -0.0000

          k = 0.1667 0.4811 0.0741 (  1525 PWs)   bands (ev):

   -10.2793 -10.2580  -6.6078  -6.5945  -3.2566  -3.2492   2.0309   2.2843
     7.2425   7.3798  14.0849  14.7231

     occupation numbers 
     1.0000   1.0000   1.0000   1.0000   1.0000   1.0000   1.0000   1.0000
    -0.0000  -0.0000  -0.0000  -0.0000

          k = 0.1667 0.4811-0.1483 (  1520 PWs)   bands (ev):

   -10.2687 -10.2687  -6.6011  -6.6011  -3.2529  -3.2529   2.1554   2.1554
     7.3085   7.3085  14.6251  14.6251

     occupation numbers 
     1.0000   1.0000   1.0000   1.0000   1.0000   1.0000   1.0000   1.0000
    -0.0000  -0.0000  -0.0000  -0.0000

          k = 0.1667 0.5774 0.0000 (  1527 PWs)   bands (ev):

    -9.0510  -9.0368  -8.0306  -8.0201  -3.4429  -3.4320   2.9556   3.1248
     6.1942   6.3249  14.6172  14.7563

     occupation numbers 
     1.0000   1.0000   1.0000   1.0000   1.0000   1.0000   1.0004   1.0012
    -0.0074  -0.0037  -0.0000  -0.0000

          k = 0.1667 0.5774 0.0741 (  1526 PWs)   bands (ev):

    -9.0489  -9.0389  -8.0291  -8.0217  -3.4413  -3.4336   2.9820   3.1019
     6.2065   6.2992  14.6353  14.7330

     occupation numbers 
     1.0000   1.0000   1.0000   1.0000   1.0000   1.0000   1.0005   1.0011
    -0.0069  -0.0043  -0.0000  -0.0000

          k = 0.1667 0.5774-0.1483 (  1532 PWs)   bands (ev):

    -9.0439  -9.0439  -8.0255  -8.0255  -3.4374  -3.4374   3.0437   3.0437
     6.2462   6.2462  14.6811  14.6811

     occupation numbers 
     1.0000   1.0000   1.0000   1.0000   1.0000   1.0000   1.0007   1.0007
    -0.0057  -0.0057  -0.0000  -0.0000

          k = 0.2500 0.4330 0.0000 (  1525 PWs)   bands (ev):

   -10.4308 -10.4000  -5.7384  -5.7292  -4.1558  -4.1488   1.8839   2.2712
     7.5366   7.6729  13.6411  15.3846

     occupation numbers 
     1.0000   1.0000   1.0000   1.0000   1.0000   1.0000   1.0000   1.0000
    -0.0000  -0.0000  -0.0000  -0.0000

          k = 0.2500 0.4330 0.0741 (  1530 PWs)   bands (ev):

   -10.4263 -10.4046  -5.7370  -5.7306  -4.1548  -4.1498   1.9377   2.2114
     7.5564   7.6528  13.8708  15.0831

     occupation numbers 
     1.0000   1.0000   1.0000   1.0000   1.0000   1.0000   1.0000   1.0000
    -0.0000  -0.0000  -0.0000  -0.0000

          k = 0.2500 0.4330-0.1483 (  1534 PWs)   bands (ev):

   -10.4155 -10.4155  -5.7338  -5.7338  -4.1523  -4.1523   2.0716   2.0716
     7.6045   7.6045  14.4487  14.4487

     occupation numbers 
     1.0000   1.0000   1.0000   1.0000   1.0000   1.0000   1.0000   1.0000
    -0.0000  -0.0000  -0.0000  -0.0000

          k = 0.2500 0.5292 0.0000 (  1531 PWs)   bands (ev):

    -9.0132  -8.9889  -7.1551  -7.1394  -4.8633  -4.8516   3.3196   3.5837
     6.0303   6.1606  15.5761  15.6365

     occupation numbers 
     1.0000   1.0000   1.0000   1.0000   1.0000   1.0000   1.0040   1.0140
    -0.0150  -0.0086  -0.0000  -0.0000

          k = 0.2500 0.5292 0.0741 (  1531 PWs)   bands (ev):

    -9.0097  -8.9925  -7.1528  -7.1417  -4.8616  -4.8533   3.3579   3.5448
     6.0474   6.1396  15.4055  15.4978

     occupation numbers 
     1.0000   1.0000   1.0000   1.0000   1.0000   1.0000   1.0049   1.0119
    -0.0141  -0.0095  -0.0000  -0.0000

          k = 0.2500 0.5292-0.1483 (  1544 PWs)   bands (ev):

    -9.0011  -9.0011  -7.1473  -7.1473  -4.8574  -4.8574   3.4510   3.4510
     6.0915   6.0915  15.3410  15.3411

     occupation numbers 
     1.0000   1.0000   1.0000   1.0000   1.0000   1.0000   1.0078   1.0078
    -0.0117  -0.0117  -0.0000  -0.0000

          k = 0.3333 0.5774 0.0000 (  1527 PWs)   bands (ev):

    -7.8034  -7.7910  -7.7909  -7.7792  -5.7439  -5.7438   4.6449   4.7991
     4.7992   4.9616  15.4980  15.4987

     occupation numbers 
     1.0000   1.0000   1.0000   1.0000   1.0000   1.0000   0.7061   0.5216
     0.5215   0.3239  -0.0000  -0.0000

          k = 0.3333 0.5774 0.0741 (  1530 PWs)   bands (ev):

    -7.7999  -7.7910  -7.7909  -7.7827  -5.7439  -5.7439   4.6893   4.8001
     4.8002   4.9132  15.3297  15.3301

     occupation numbers 
     1.0000   1.0000   1.0000   1.0000   1.0000   1.0000   0.6552   0.5204
     0.5203   0.3811  -0.0000  -0.0000

          k = 0.3333 0.5774-0.1483 (  1542 PWs)   bands (ev):

    -7.7919  -7.7919  -7.7904  -7.7904  -5.7439  -5.7439   4.7988   4.7988
     4.8014   4.8014  15.1985  15.1985

     occupation numbers 
     1.0000   1.0000   1.0000   1.0000   1.0000   1.0000   0.5221   0.5221
     0.5188   0.5188  -0.0000  -0.0000

          k =-0.0833-0.0481 0.0000 (  1493 PWs)   bands (ev):

   -14.5364 -14.4917  -2.8646  -2.3054   1.0828   1.0860   1.3930   1.3955
     8.1837  11.6853  13.1475  13.1724

     occupation numbers 
     1.0000   1.0000   1.0000   1.0000   1.0000   1.0000   1.0000   1.0000
    -0.0000  -0.0000  -0.0000  -0.0000

          k =-0.0833-0.0481-0.0741 (  1489 PWs)   bands (ev):

   -14.5299 -14.4984  -2.7889  -2.3943   1.0833   1.0855   1.3934   1.3951
     8.5444  10.8630  13.1583  13.1709

     occupation numbers 
     1.0000   1.0000   1.0000   1.0000   1.0000   1.0000   1.0000   1.0000
    -0.0000  -0.0000  -0.0000  -0.0000

          k =-0.0833-0.0481 0.1483 (  1486 PWs)   bands (ev):

   -14.5142 -14.5142  -2.5982  -2.5982   1.0844   1.0844   1.3943   1.3943
     9.5335   9.5335  13.1663  13.1663

     occupation numbers 
     1.0000   1.0000   1.0000   1.0000   1.0000   1.0000   1.0000   1.0000
    -0.0000  -0.0000  -0.0000  -0.0000

          k =-0.1667-0.0962 0.0000 (  1503 PWs)   bands (ev):

   -14.0476 -14.0047  -2.2772  -1.7331  -0.5511  -0.5444   0.6037   0.6074
     8.8216  12.2526  13.0733  13.1276

     occupation numbers 
     1.0000   1.0000   1.0000   1.0000   1.0000   1.0000   1.0000   1.0000
    -0.0000  -0.0000  -0.0000  -0.0000

          k =-0.1667-0.0962-0.0741 (  1496 PWs)   bands (ev):

   -14.0414 -14.0110  -2.2034  -1.8194  -0.5502  -0.5454   0.6043   0.6069
     9.1759  11.4481  13.0989  13.1247

     occupation numbers 
     1.0000   1.0000   1.0000   1.0000   1.0000   1.0000   1.0000   1.0000
    -0.0000  -0.0000  -0.0000  -0.0000

          k =-0.1667-0.0962 0.1483 (  1490 PWs)   bands (ev):

   -14.0263 -14.0263  -2.0176  -2.0176  -0.5478  -0.5478   0.6056   0.6056
    10.1470  10.1470  13.1152  13.1152

     occupation numbers 
     1.0000   1.0000   1.0000   1.0000   1.0000   1.0000   1.0000   1.0000
    -0.0000  -0.0000  -0.0000  -0.0000

          k =-0.2500-0.1443 0.0000 (  1497 PWs)   bands (ev):

   -13.2394 -13.1992  -2.6444  -2.6329  -1.3179  -0.8018  -0.2729  -0.2685
     9.8820  11.9193  12.0386  12.7850

     occupation numbers 
     1.0000   1.0000   1.0000   1.0000   1.0000   1.0000   1.0000   1.0000
    -0.0000  -0.0000  -0.0000  -0.0000

          k =-0.2500-0.1443-0.0741 (  1502 PWs)   bands (ev):

   -13.2336 -13.2052  -2.6428  -2.6347  -1.2477  -0.8833  -0.2723  -0.2691
    10.2189  11.8849  12.0076  12.5411

     occupation numbers 
     1.0000   1.0000   1.0000   1.0000   1.0000   1.0000   1.0000   1.0000
    -0.0000  -0.0000  -0.0000  -0.0000

          k =-0.2500-0.1443 0.1483 (  1508 PWs)   bands (ev):

   -13.2195 -13.2195  -2.6387  -2.6387  -1.0711  -1.0711  -0.2707  -0.2707
    11.1178  11.1178  12.0700  12.0701

     occupation numbers 
     1.0000   1.0000   1.0000   1.0000   1.0000   1.0000   1.0000   1.0000
    -0.0000  -0.0000  -0.0000  -0.0000

          k =-0.3333-0.1925 0.0000 (  1504 PWs)   bands (ev):

   -12.1240 -12.0876  -4.8418  -4.8253  -1.0040  -0.9991  -0.0335   0.4343
     9.5920   9.8079  11.3484  12.4535

     occupation numbers 
     1.0000   1.0000   1.0000   1.0000   1.0000   1.0000   1.0000   1.0000
    -0.0000  -0.0000  -0.0000  -0.0000

          k =-0.3333-0.1925-0.0741 (  1509 PWs)   bands (ev):

   -12.1188 -12.0930  -4.8394  -4.8278  -1.0032  -0.9998   0.0307   0.3610
     9.6146   9.7683  11.6827  12.4533

     occupation numbers 
     1.0000   1.0000   1.0000   1.0000   1.0000   1.0000   1.0000   1.0000
    -0.0000  -0.0000  -0.0000  -0.0000

          k =-0.3333-0.1925 0.1483 (  1502 PWs)   bands (ev):

   -12.1059 -12.1059  -4.8336  -4.8336  -1.0015  -1.0015   0.1914   0.1914
     9.6839   9.6839  12.3705  12.3705

     occupation numbers 
     1.0000   1.0000   1.0000   1.0000   1.0000   1.0000   1.0000   1.0000
    -0.0000  -0.0000  -0.0000  -0.0000

          k =-0.4167-0.2406 0.0000 (  1508 PWs)   bands (ev):

   -10.7327 -10.7012  -6.9353  -6.9141  -1.4754  -1.4703   1.4276   1.7952
     7.4428   7.7151  12.2032  12.2604

     occupation numbers 
     1.0000   1.0000   1.0000   1.0000   1.0000   1.0000   1.0000   1.0000
    -0.0000  -0.0000  -0.0000  -0.0000

          k =-0.4167-0.2406-0.0741 (  1510 PWs)   bands (ev):

   -10.7282 -10.7058  -6.9322  -6.9172  -1.4747  -1.4711   1.4793   1.7390
     7.4760   7.6685  12.2130  12.2538

     occupation numbers 
     1.0000   1.0000   1.0000   1.0000   1.0000   1.0000   1.0000   1.0000
    -0.0000  -0.0000  -0.0000  -0.0000

          k =-0.4167-0.2406 0.1483 (  1500 PWs)   bands (ev):

   -10.7170 -10.7170  -6.9247  -6.9247  -1.4729  -1.4729   1.6069   1.6069
     7.5657   7.5657  12.2347  12.2347

     occupation numbers 
     1.0000   1.0000   1.0000   1.0000   1.0000   1.0000   1.0000   1.0000
    -0.0000  -0.0000  -0.0000  -0.0000

          k = 0.5000 0.2887 0.0000 (  1508 PWs)   bands (ev):

    -9.4720  -9.4571  -8.4250  -8.4130  -1.6373  -1.6321   2.3569   2.5298
     6.3766   6.6146  12.1210  12.1870

     occupation numbers 
     1.0000   1.0000   1.0000   1.0000   1.0000   1.0000   1.0000   1.0000
    -0.0028  -0.0006  -0.0000  -0.0000

          k = 0.5000 0.2887-0.0741 (  1520 PWs)   bands (ev):

    -9.4698  -9.4592  -8.4233  -8.4148  -1.6366  -1.6329   2.3837   2.5062
     6.4014   6.5696  12.1306  12.1772

     occupation numbers 
     1.0000   1.0000   1.0000   1.0000   1.0000   1.0000   1.0000   1.0000
    -0.0024  -0.0008  -0.0000  -0.0000

          k = 0.5000 0.2887 0.1483 (  1520 PWs)   bands (ev):

    -9.4645  -9.4645  -8.4192  -8.4192  -1.6347  -1.6347   2.4465   2.4465
     6.4754   6.4754  12.1538  12.1538

     occupation numbers 
     1.0000   1.0000   1.0000   1.0000   1.0000   1.0000   1.0000   1.0000
    -0.0015  -0.0015  -0.0000  -0.0000

          k = 0.1667 0.0000 0.0000 (  1505 PWs)   bands (ev):

   -14.2103 -14.1668  -2.4721  -1.9228   0.0529   0.0560   0.7185   0.7206
     8.6093  12.0698  13.4247  13.4750

     occupation numbers 
     1.0000   1.0000   1.0000   1.0000   1.0000   1.0000   1.0000   1.0000
    -0.0000  -0.0000  -0.0000  -0.0000

          k = 0.1667 0.0000-0.0741 (  1502 PWs)   bands (ev):

   -14.2039 -14.1732  -2.3977  -2.0100   0.0534   0.0556   0.7188   0.7203
     8.9660  11.2572  13.4484  13.4722

     occupation numbers 
     1.0000   1.0000   1.0000   1.0000   1.0000   1.0000   1.0000   1.0000
    -0.0000  -0.0000  -0.0000  -0.0000

          k = 0.1667 0.0000 0.1483 (  1500 PWs)   bands (ev):

   -14.1886 -14.1886  -2.2102  -2.2102   0.0545   0.0545   0.7196   0.7196
     9.9441   9.9441  13.4641  13.4642

     occupation numbers 
     1.0000   1.0000   1.0000   1.0000   1.0000   1.0000   1.0000   1.0000
    -0.0000  -0.0000  -0.0000  -0.0000

          k =-0.1667-0.1925 0.0000 (  1500 PWs)   bands (ev):

   -13.5618 -13.5205  -1.6977  -1.6550  -1.6476  -1.1696  -0.2743  -0.2700
     9.4603  12.6990  12.8148  13.0113

     occupation numbers 
     1.0000   1.0000   1.0000   1.0000   1.0000   1.0000   1.0000   1.0000
    -0.0000  -0.0000  -0.0000  -0.0000

          k = 0.2500-0.0481 0.0000 (  1500 PWs)   bands (ev):

   -13.5618 -13.5205  -1.6977  -1.6539  -1.6464  -1.1697  -0.2756  -0.2712
     9.4603  12.6993  12.8154  13.0113

     occupation numbers 
     1.0000   1.0000   1.0000   1.0000   1.0000   1.0000   1.0000   1.0000
    -0.0000  -0.0000  -0.0000  -0.0000

          k =-0.1667-0.1925-0.0741 (  1503 PWs)   bands (ev):

   -13.5558 -13.5266  -1.6540  -1.6487  -1.6258  -1.2532  -0.2737  -0.2706
     9.8074  12.0162  12.8190  12.9010

     occupation numbers 
     1.0000   1.0000   1.0000   1.0000   1.0000   1.0000   1.0000   1.0000
    -0.0000  -0.0000  -0.0000  -0.0000

          k = 0.2500-0.0481-0.0741 (  1503 PWs)   bands (ev):

   -13.5558 -13.5266  -1.6528  -1.6476  -1.6259  -1.2533  -0.2750  -0.2719
     9.8074  12.0161  12.8196  12.9015

     occupation numbers 
     1.0000   1.0000   1.0000   1.0000   1.0000   1.0000   1.0000   1.0000
    -0.0000  -0.0000  -0.0000  -0.0000

          k =-0.1667-0.1925 0.1483 (  1506 PWs)   bands (ev):

   -13.5413 -13.5413  -1.6513  -1.6513  -1.4454  -1.4454  -0.2721  -0.2721
    10.7572  10.7572  12.8536  12.8536

     occupation numbers 
     1.0000   1.0000   1.0000   1.0000   1.0000   1.0000   1.0000   1.0000
    -0.0000  -0.0000  -0.0000  -0.0000

          k = 0.2500-0.0481 0.1483 (  1506 PWs)   bands (ev):

   -13.5413 -13.5413  -1.6502  -1.6502  -1.4454  -1.4454  -0.2734  -0.2734
    10.7571  10.7571  12.8541  12.8542

     occupation numbers 
     1.0000   1.0000   1.0000   1.0000   1.0000   1.0000   1.0000   1.0000
    -0.0000  -0.0000  -0.0000  -0.0000

          k =-0.2500-0.2406 0.0000 (  1514 PWs)   bands (ev):

   -12.5999 -12.5618  -3.7226  -3.7094  -1.1587  -1.1527  -0.5700  -0.0787
    10.6320  10.7299  10.7838  13.3086

     occupation numbers 
     1.0000   1.0000   1.0000   1.0000   1.0000   1.0000   1.0000   1.0000
    -0.0000  -0.0000  -0.0000  -0.0000

          k = 0.3333-0.0962 0.0000 (  1514 PWs)   bands (ev):

   -12.5998 -12.5618  -3.7222  -3.7090  -1.1592  -1.1532  -0.5701  -0.0788
    10.6325  10.7299  10.7843  13.3079

     occupation numbers 
     1.0000   1.0000   1.0000   1.0000   1.0000   1.0000   1.0000   1.0000
    -0.0000  -0.0000  -0.0000  -0.0000

          k =-0.2500-0.2406-0.0741 (  1506 PWs)   bands (ev):

   -12.5943 -12.5674  -3.7206  -3.7114  -1.1578  -1.1536  -0.5028  -0.1559
    10.6297  10.7499  11.0962  13.1318

     occupation numbers 
     1.0000   1.0000   1.0000   1.0000   1.0000   1.0000   1.0000   1.0000
    -0.0000  -0.0000  -0.0000  -0.0000

          k = 0.3333-0.0962-0.0741 (  1506 PWs)   bands (ev):

   -12.5943 -12.5674  -3.7202  -3.7110  -1.1583  -1.1541  -0.5029  -0.1560
    10.6302  10.7504  11.0962  13.1316

     occupation numbers 
     1.0000   1.0000   1.0000   1.0000   1.0000   1.0000   1.0000   1.0000
    -0.0000  -0.0000  -0.0000  -0.0000

          k =-0.2500-0.2406 0.1483 (  1504 PWs)   bands (ev):

   -12.5809 -12.5809  -3.7160  -3.7160  -1.1557  -1.1557  -0.3344  -0.3344
    10.6864  10.6864  12.0051  12.0051

     occupation numbers 
     1.0000   1.0000   1.0000   1.0000   1.0000   1.0000   1.0000   1.0000
    -0.0000  -0.0000  -0.0000  -0.0000

          k = 0.3333-0.0962 0.1483 (  1504 PWs)   bands (ev):

   -12.5809 -12.5809  -3.7156  -3.7156  -1.1562  -1.1562  -0.3345  -0.3345
    10.6869  10.6869  12.0050  12.0050

     occupation numbers 
     1.0000   1.0000   1.0000   1.0000   1.0000   1.0000   1.0000   1.0000
    -0.0000  -0.0000  -0.0000  -0.0000

          k =-0.3333-0.2887 0.0000 (  1522 PWs)   bands (ev):

   -11.3433 -11.3096  -5.8392  -5.8207  -1.7921  -1.7853   0.8332   1.2584
     8.3995   8.6308  12.3878  13.0273

     occupation numbers 
     1.0000   1.0000   1.0000   1.0000   1.0000   1.0000   1.0000   1.0000
    -0.0000  -0.0000  -0.0000  -0.0000

          k = 0.4167-0.1443 0.0000 (  1522 PWs)   bands (ev):

   -11.3433 -11.3095  -5.8390  -5.8206  -1.7922  -1.7854   0.8331   1.2582
     8.3999   8.6312  12.3877  13.0270

     occupation numbers 
     1.0000   1.0000   1.0000   1.0000   1.0000   1.0000   1.0000   1.0000
    -0.0000  -0.0000  -0.0000  -0.0000

          k =-0.3333-0.2887-0.0741 (  1517 PWs)   bands (ev):

   -11.3385 -11.3145  -5.8365  -5.8234  -1.7911  -1.7863   0.8921   1.1924
     8.4286   8.5924  12.6786  13.0330

     occupation numbers 
     1.0000   1.0000   1.0000   1.0000   1.0000   1.0000   1.0000   1.0000
    -0.0000  -0.0000  -0.0000  -0.0000

          k = 0.4167-0.1443-0.0741 (  1517 PWs)   bands (ev):

   -11.3384 -11.3145  -5.8363  -5.8233  -1.7912  -1.7864   0.8919   1.1922
     8.4289   8.5928  12.6783  13.0327

     occupation numbers 
     1.0000   1.0000   1.0000   1.0000   1.0000   1.0000   1.0000   1.0000
    -0.0000  -0.0000  -0.0000  -0.0000

          k =-0.3333-0.2887 0.1483 (  1514 PWs)   bands (ev):

   -11.3265 -11.3265  -5.8299  -5.8299  -1.7887  -1.7887   1.0386   1.0386
     8.5059   8.5059  13.0190  13.0191

     occupation numbers 
     1.0000   1.0000   1.0000   1.0000   1.0000   1.0000   1.0000   1.0000
    -0.0000  -0.0000  -0.0000  -0.0000

          k = 0.4167-0.1443 0.1483 (  1514 PWs)   bands (ev):

   -11.3265 -11.3265  -5.8298  -5.8298  -1.7889  -1.7889   1.0385   1.0385
     8.5062   8.5062  13.0186  13.0186

     occupation numbers 
     1.0000   1.0000   1.0000   1.0000   1.0000   1.0000   1.0000   1.0000
    -0.0000  -0.0000  -0.0000  -0.0000

          k =-0.4167-0.3368 0.0000 (  1524 PWs)   bands (ev):

    -9.8691  -9.8421  -7.7719  -7.7506  -2.1197  -2.1126   2.2081   2.4739
     6.6446   6.8836  12.8509  12.9258

     occupation numbers 
     1.0000   1.0000   1.0000   1.0000   1.0000   1.0000   1.0000   1.0000
    -0.0005  -0.0001  -0.0000  -0.0000

          k = 0.5000-0.1925 0.0000 (  1524 PWs)   bands (ev):

    -9.8691  -9.8421  -7.7719  -7.7505  -2.1198  -2.1127   2.2080   2.4738
     6.6448   6.8838  12.8508  12.9257

     occupation numbers 
     1.0000   1.0000   1.0000   1.0000   1.0000   1.0000   1.0000   1.0000
    -0.0005  -0.0001  -0.0000  -0.0000

          k =-0.4167-0.3368-0.0741 (  1515 PWs)   bands (ev):

    -9.8652  -9.8460  -7.7688  -7.7537  -2.1187  -2.1136   2.2469   2.4350
     6.6721   6.8412  12.8619  12.9149

     occupation numbers 
     1.0000   1.0000   1.0000   1.0000   1.0000   1.0000   1.0000   1.0000
    -0.0004  -0.0001  -0.0000  -0.0000

          k = 0.5000-0.1925-0.0741 (  1515 PWs)   bands (ev):

    -9.8652  -9.8460  -7.7688  -7.7537  -2.1187  -2.1137   2.2468   2.4349
     6.6722   6.8414  12.8618  12.9148

     occupation numbers 
     1.0000   1.0000   1.0000   1.0000   1.0000   1.0000   1.0000   1.0000
    -0.0004  -0.0001  -0.0000  -0.0000

          k =-0.4167-0.3368 0.1483 (  1524 PWs)   bands (ev):

    -9.8557  -9.8557  -7.7613  -7.7613  -2.1162  -2.1162   2.3408   2.3408
     6.7492   6.7492  12.8884  12.8884

     occupation numbers 
     1.0000   1.0000   1.0000   1.0000   1.0000   1.0000   1.0000   1.0000
    -0.0002  -0.0002  -0.0000  -0.0000

          k = 0.5000-0.1925 0.1483 (  1524 PWs)   bands (ev):

    -9.8556  -9.8556  -7.7612  -7.7612  -2.1162  -2.1162   2.3407   2.3407
     6.7494   6.7494  12.8883  12.8883

     occupation numbers 
     1.0000   1.0000   1.0000   1.0000   1.0000   1.0000   1.0000   1.0000
    -0.0002  -0.0002  -0.0000  -0.0000

          k = 0.3333 0.0000 0.0000 (  1509 PWs)   bands (ev):

   -12.7595 -12.7209  -2.9805  -2.9744  -1.6302  -1.6257  -0.7515  -0.2526
    10.5222  11.0971  11.1975  13.6815

     occupation numbers 
     1.0000   1.0000   1.0000   1.0000   1.0000   1.0000   1.0000   1.0000
    -0.0000  -0.0000  -0.0000  -0.0000

          k = 0.3333 0.0000-0.0741 (  1516 PWs)   bands (ev):

   -12.7539 -12.7267  -2.9796  -2.9753  -1.6295  -1.6264  -0.6834  -0.3312
    10.8549  11.1117  11.1829  12.9633

     occupation numbers 
     1.0000   1.0000   1.0000   1.0000   1.0000   1.0000   1.0000   1.0000
    -0.0000  -0.0000  -0.0000  -0.0000

          k = 0.3333 0.0000 0.1483 (  1518 PWs)   bands (ev):

   -12.7403 -12.7403  -2.9775  -2.9775  -1.6280  -1.6280  -0.5125  -0.5125
    11.1469  11.1469  11.7643  11.7644

     occupation numbers 
     1.0000   1.0000   1.0000   1.0000   1.0000   1.0000   1.0000   1.0000
    -0.0000  -0.0000  -0.0000  -0.0000

          k =-0.2500-0.3368 0.0000 (  1517 PWs)   bands (ev):

   -11.6550 -11.6202  -4.7054  -4.6928  -2.6830  -2.6749   0.5182   0.9687
     9.1407   9.2840  11.9939  14.9248

     occupation numbers 
     1.0000   1.0000   1.0000   1.0000   1.0000   1.0000   1.0000   1.0000
    -0.0000  -0.0000  -0.0000  -0.0000

          k = 0.4167-0.0481 0.0000 (  1517 PWs)   bands (ev):

   -11.6550 -11.6201  -4.7045  -4.6919  -2.6840  -2.6759   0.5179   0.9684
     9.1416   9.2850  11.9939  14.9285

     occupation numbers 
     1.0000   1.0000   1.0000   1.0000   1.0000   1.0000   1.0000   1.0000
    -0.0000  -0.0000  -0.0000  -0.0000

          k =-0.2500-0.3368-0.0741 (  1515 PWs)   bands (ev):

   -11.6500 -11.6253  -4.7035  -4.6946  -2.6818  -2.6761   0.5801   0.8983
     9.1605   9.2621  12.3004  14.1628

     occupation numbers 
     1.0000   1.0000   1.0000   1.0000   1.0000   1.0000   1.0000   1.0000
    -0.0000  -0.0000  -0.0000  -0.0000

          k = 0.4167-0.0481-0.0741 (  1515 PWs)   bands (ev):

   -11.6499 -11.6253  -4.7027  -4.6938  -2.6829  -2.6771   0.5799   0.8980
     9.1614   9.2630  12.3004  14.1623

     occupation numbers 
     1.0000   1.0000   1.0000   1.0000   1.0000   1.0000   1.0000   1.0000
    -0.0000  -0.0000  -0.0000  -0.0000

          k =-0.2500-0.3368 0.1483 (  1524 PWs)   bands (ev):

   -11.6377 -11.6377  -4.6991  -4.6991  -2.6790  -2.6790   0.7350   0.7350
     9.2103   9.2103  13.1243  13.1243

     occupation numbers 
     1.0000   1.0000   1.0000   1.0000   1.0000   1.0000   1.0000   1.0000
    -0.0000  -0.0000  -0.0000  -0.0000

          k = 0.4167-0.0481 0.1483 (  1524 PWs)   bands (ev):

   -11.6377 -11.6377  -4.6982  -4.6982  -2.6800  -2.6800   0.7347   0.7347
     9.2112   9.2112  13.1240  13.1240

     occupation numbers 
     1.0000   1.0000   1.0000   1.0000   1.0000   1.0000   1.0000   1.0000
    -0.0000  -0.0000  -0.0000  -0.0000

          k =-0.3333-0.3849 0.0000 (  1522 PWs)   bands (ev):

   -10.2837 -10.2536  -6.6096  -6.5907  -3.2592  -3.2488   1.9799   2.3385
     7.2183   7.4120  13.8409  14.7157

     occupation numbers 
     1.0000   1.0000   1.0000   1.0000   1.0000   1.0000   1.0000   1.0000
    -0.0000  -0.0000  -0.0000  -0.0000

          k = 0.5000-0.0962 0.0000 (  1522 PWs)   bands (ev):

   -10.2837 -10.2536  -6.6093  -6.5904  -3.2596  -3.2491   1.9796   2.3381
     7.2189   7.4126  13.8407  14.7151

     occupation numbers 
     1.0000   1.0000   1.0000   1.0000   1.0000   1.0000   1.0000   1.0000
    -0.0000  -0.0000  -0.0000  -0.0000

          k =-0.3333-0.3849-0.0741 (  1525 PWs)   bands (ev):

   -10.2793 -10.2580  -6.6068  -6.5935  -3.2577  -3.2504   2.0303   2.2837
     7.2438   7.3810  14.0850  14.7224

     occupation numbers 
     1.0000   1.0000   1.0000   1.0000   1.0000   1.0000   1.0000   1.0000
    -0.0000  -0.0000  -0.0000  -0.0000

          k = 0.5000-0.0962-0.0741 (  1525 PWs)   bands (ev):

   -10.2793 -10.2580  -6.6066  -6.5932  -3.2581  -3.2507   2.0300   2.2833
     7.2444   7.3816  14.0849  14.7220

     occupation numbers 
     1.0000   1.0000   1.0000   1.0000   1.0000   1.0000   1.0000   1.0000
    -0.0000  -0.0000  -0.0000  -0.0000

          k =-0.3333-0.3849 0.1483 (  1520 PWs)   bands (ev):

   -10.2687 -10.2687  -6.6001  -6.6001  -3.2540  -3.2540   2.1547   2.1547
     7.3096   7.3096  14.6251  14.6251

     occupation numbers 
     1.0000   1.0000   1.0000   1.0000   1.0000   1.0000   1.0000   1.0000
    -0.0000  -0.0000  -0.0000  -0.0000

          k = 0.5000-0.0962 0.1483 (  1520 PWs)   bands (ev):

   -10.2687 -10.2687  -6.5999  -6.5999  -3.2544  -3.2544   2.1544   2.1544
     7.3103   7.3103  14.6242  14.6247

     occupation numbers 
     1.0000   1.0000   1.0000   1.0000   1.0000   1.0000   1.0000   1.0000
    -0.0000  -0.0000  -0.0000  -0.0000

          k =-0.4167-0.4330 0.0000 (  1527 PWs)   bands (ev):

    -9.0519  -9.0378  -8.0287  -8.0181  -3.4442  -3.4332   2.9541   3.1233
     6.1964   6.3272  14.6165  14.7555

     occupation numbers 
     1.0000   1.0000   1.0000   1.0000   1.0000   1.0000   1.0004   1.0012
    -0.0073  -0.0037  -0.0000  -0.0000

          k =-0.4167-0.4330-0.0741 (  1526 PWs)   bands (ev):

    -9.0498  -9.0398  -8.0272  -8.0198  -3.4426  -3.4348   2.9805   3.1004
     6.2087   6.3015  14.6346  14.7322

     occupation numbers 
     1.0000   1.0000   1.0000   1.0000   1.0000   1.0000   1.0005   1.0010
    -0.0069  -0.0042  -0.0000  -0.0000

          k =-0.4167-0.4330 0.1483 (  1532 PWs)   bands (ev):

    -9.0448  -9.0448  -8.0236  -8.0236  -3.4387  -3.4387   3.0422   3.0422
     6.2485   6.2485  14.6804  14.6804

     occupation numbers 
     1.0000   1.0000   1.0000   1.0000   1.0000   1.0000   1.0007   1.0007
    -0.0056  -0.0056  -0.0000  -0.0000

          k = 0.5000-0.0000 0.0000 (  1525 PWs)   bands (ev):

   -10.4308 -10.4000  -5.7369  -5.7278  -4.1574  -4.1504   1.8833   2.2706
     7.5379   7.6742  13.6411  15.3835

     occupation numbers 
     1.0000   1.0000   1.0000   1.0000   1.0000   1.0000   1.0000   1.0000
    -0.0000  -0.0000  -0.0000  -0.0000

          k = 0.5000-0.0000-0.0741 (  1530 PWs)   bands (ev):

   -10.4263 -10.4045  -5.7356  -5.7291  -4.1564  -4.1514   1.9372   2.2108
     7.5577   7.6541  13.8707  15.0823

     occupation numbers 
     1.0000   1.0000   1.0000   1.0000   1.0000   1.0000   1.0000   1.0000
    -0.0000  -0.0000  -0.0000  -0.0000

          k = 0.5000-0.0000 0.1483 (  1534 PWs)   bands (ev):

   -10.4155 -10.4155  -5.7323  -5.7323  -4.1539  -4.1539   2.0710   2.0710
     7.6058   7.6058  14.4483  14.4483

     occupation numbers 
     1.0000   1.0000   1.0000   1.0000   1.0000   1.0000   1.0000   1.0000
    -0.0000  -0.0000  -0.0000  -0.0000

          k =-0.3333-0.4811 0.0000 (  1531 PWs)   bands (ev):

    -9.0135  -8.9892  -7.1541  -7.1384  -4.8641  -4.8524   3.3189   3.5829
     6.0315   6.1616  15.5762  15.6362

     occupation numbers 
     1.0000   1.0000   1.0000   1.0000   1.0000   1.0000   1.0040   1.0139
    -0.0150  -0.0086  -0.0000  -0.0000

          k = 0.5833-0.0481 0.0000 (  1531 PWs)   bands (ev):

    -9.0136  -8.9892  -7.1535  -7.1378  -4.8646  -4.8529   3.3183   3.5824
     6.0322   6.1624  15.5761  15.6354

     occupation numbers 
     1.0000   1.0000   1.0000   1.0000   1.0000   1.0000   1.0039   1.0139
    -0.0149  -0.0086  -0.0000  -0.0000

          k =-0.3333-0.4811-0.0741 (  1531 PWs)   bands (ev):

    -9.0099  -8.9928  -7.1518  -7.1407  -4.8624  -4.8542   3.3572   3.5440
     6.0485   6.1406  15.4053  15.4977

     occupation numbers 
     1.0000   1.0000   1.0000   1.0000   1.0000   1.0000   1.0049   1.0119
    -0.0140  -0.0095  -0.0000  -0.0000

          k = 0.5833-0.0481-0.0741 (  1531 PWs)   bands (ev):

    -9.0100  -8.9928  -7.1513  -7.1402  -4.8629  -4.8546   3.3566   3.5435
     6.0493   6.1415  15.4052  15.4970

     occupation numbers 
     1.0000   1.0000   1.0000   1.0000   1.0000   1.0000   1.0048   1.0118
    -0.0140  -0.0094  -0.0000  -0.0000

          k =-0.3333-0.4811 0.1483 (  1544 PWs)   bands (ev):

    -9.0014  -9.0014  -7.1463  -7.1463  -4.8583  -4.8583   3.4503   3.4503
     6.0926   6.0926  15.3409  15.3409

     occupation numbers 
     1.0000   1.0000   1.0000   1.0000   1.0000   1.0000   1.0078   1.0078
    -0.0117  -0.0117  -0.0000  -0.0000

          k = 0.5833-0.0481 0.1483 (  1544 PWs)   bands (ev):

    -9.0014  -9.0014  -7.1458  -7.1458  -4.8588  -4.8588   3.4497   3.4497
     6.0934   6.0934  15.3404  15.3405

     occupation numbers 
     1.0000   1.0000   1.0000   1.0000   1.0000   1.0000   1.0078   1.0078
    -0.0117  -0.0117  -0.0000  -0.0000

     the Fermi energy is     4.8165 ev

!    total energy              =     -49.71406523 Ry
     estimated scf accuracy    <          1.9E-10 Ry
     smearing contrib. (-TS)   =       0.00013581 Ry
     internal energy E=F+TS    =     -49.71420104 Ry

     The total energy is F=E-TS. E is the sum of the following terms:
     one-electron contribution =     -29.91293442 Ry
     hartree contribution      =      21.73994981 Ry
     xc contribution           =     -18.53791391 Ry
     ewald contribution        =     -23.00330253 Ry

     convergence has been achieved in   7 iterations

     Forces acting on atoms (cartesian axes, Ry/au):

     atom    1 type  1   force =     0.00000000   -0.00028911    0.00000000
     atom    2 type  1   force =     0.00000000    0.00028911    0.00000000
     atom    3 type  1   force =     0.00000000    0.00028981    0.00000000
     atom    4 type  1   force =    -0.00000000   -0.00028981    0.00000000
     The non-local contrib.  to forces
     atom    1 type  1   force =     0.00000000   -0.00026049    0.00000000
     atom    2 type  1   force =     0.00000000    0.00026049    0.00000000
     atom    3 type  1   force =     0.00000000    0.00026075    0.00000000
     atom    4 type  1   force =     0.00000000   -0.00026075    0.00000000
     The ionic contribution  to forces
     atom    1 type  1   force =    -0.00000000   -0.00098176   -0.00000000
     atom    2 type  1   force =    -0.00000000    0.00098176    0.00000000
     atom    3 type  1   force =    -0.00000000    0.00098202   -0.00000000
     atom    4 type  1   force =     0.00000000   -0.00098202    0.00000000
     The local contribution  to forces
     atom    1 type  1   force =     0.00000000    0.00094464    0.00000000
     atom    2 type  1   force =    -0.00000000   -0.00094464    0.00000000
     atom    3 type  1   force =    -0.00000000   -0.00094520    0.00000000
     atom    4 type  1   force =    -0.00000000    0.00094520    0.00000000
     The core correction contribution to forces
     atom    1 type  1   force =     0.00000000    0.00000849   -0.00000000
     atom    2 type  1   force =     0.00000000   -0.00000849   -0.00000000
     atom    3 type  1   force =     0.00000000   -0.00000776   -0.00000000
     atom    4 type  1   force =     0.00000000    0.00000776   -0.00000000
     The Hubbard contrib.    to forces
     atom    1 type  1   force =     0.00000000    0.00000000    0.00000000
     atom    2 type  1   force =     0.00000000    0.00000000    0.00000000
     atom    3 type  1   force =     0.00000000    0.00000000    0.00000000
     atom    4 type  1   force =     0.00000000    0.00000000    0.00000000
     The SCF correction term to forces
     atom    1 type  1   force =     0.00000000    0.00000001    0.00000000
     atom    2 type  1   force =     0.00000000   -0.00000001    0.00000000
     atom    3 type  1   force =    -0.00000000   -0.00000000    0.00000000
     atom    4 type  1   force =    -0.00000000    0.00000000    0.00000000

     Total force =     0.000579     Total SCF correction =     0.000000


     Computing stress (Cartesian axis) and pressure

          total   stress  (Ry/bohr**3)                   (kbar)     P=      -12.35
  -0.00012693   0.00000000   0.00000000          -18.67        0.00        0.00
   0.00000000  -0.00012553   0.00000000            0.00      -18.47        0.00
   0.00000000   0.00000000   0.00000063            0.00        0.00        0.09

     kinetic stress (kbar)   9266.60     -0.00      0.00
                               -0.00   9265.89      0.00
                                0.00      0.00  10528.42

     local   stress (kbar) -26774.35     -0.00     -0.00
                               -0.00 -26778.76      0.00
                               -0.00      0.00  27091.56

     nonloc. stress (kbar)   1801.56      0.00      0.00
                                0.00   1801.71      0.00
                                0.00      0.00   1655.16

     hartree stress (kbar)   9939.56     -0.00      0.00
                               -0.00   9940.19     -0.00
                                0.00     -0.00  -9112.12

     exc-cor stress (kbar)   -164.93      0.00      0.00
                                0.00   -164.90      0.00
                                0.00      0.00   -269.56

     corecor stress (kbar)  -2235.97     -0.00     -0.00
                               -0.00  -2235.99     -0.00
                               -0.00     -0.00  -2197.77

     ewald   stress (kbar)   8148.85     -0.00     -0.00
                               -0.00   8153.39      0.00
                               -0.00      0.00 -27695.59

     hubbard stress (kbar)      0.00      0.00      0.00
                                0.00      0.00      0.00
                                0.00      0.00      0.00

     DFT-D   stress (kbar)      0.00      0.00      0.00
                                0.00      0.00      0.00
                                0.00      0.00      0.00

     XDM     stress (kbar)      0.00      0.00      0.00
                                0.00      0.00      0.00
                                0.00      0.00      0.00

     dft-nl  stress (kbar)      0.00      0.00      0.00
                                0.00      0.00      0.00
                                0.00      0.00      0.00

     TS-vdW  stress (kbar)      0.00      0.00      0.00
                                0.00      0.00      0.00
                                0.00      0.00      0.00



     Writing output data file ./tmp/C.save/

     init_run     :      5.47s CPU      5.73s WALL (       1 calls)
     electrons    :     79.94s CPU     83.77s WALL (       1 calls)
     forces       :      2.11s CPU      2.33s WALL (       1 calls)
     stress       :      5.30s CPU      5.47s WALL (       1 calls)

     Called by init_run:
     wfcinit      :      4.22s CPU      4.42s WALL (       1 calls)
     wfcinit:atom :      0.13s CPU      0.14s WALL (     129 calls)
     wfcinit:wfcr :      3.28s CPU      3.44s WALL (     129 calls)
     potinit      :      0.28s CPU      0.30s WALL (       1 calls)
     hinit0       :      0.82s CPU      0.83s WALL (       1 calls)

     Called by electrons:
     c_bands      :     65.10s CPU     68.23s WALL (       7 calls)
     sum_band     :     12.43s CPU     13.03s WALL (       7 calls)
     v_of_rho     :      1.84s CPU      1.92s WALL (       8 calls)
     v_h          :      0.09s CPU      0.10s WALL (       8 calls)
     v_xc         :      2.13s CPU      2.20s WALL (      10 calls)
     newd         :      0.52s CPU      0.54s WALL (       8 calls)
     mix_rho      :      0.18s CPU      0.20s WALL (       7 calls)

     Called by c_bands:
     init_us_2    :      3.25s CPU      3.44s WALL (    2193 calls)
     cegterg      :     61.08s CPU     64.00s WALL (     903 calls)

     Called by sum_band:
     sum_band:wei :      0.08s CPU      0.08s WALL (       7 calls)
     sum_band:loo :     11.34s CPU     11.89s WALL (       7 calls)
     sum_band:buf :      0.10s CPU      0.11s WALL (     903 calls)
     sum_band:ini :      1.37s CPU      1.43s WALL (     903 calls)
     sum_band:cal :      0.96s CPU      1.02s WALL (     903 calls)
     sum_band:bec :      0.05s CPU      0.06s WALL (     903 calls)
     addusdens    :      0.60s CPU      0.62s WALL (       7 calls)
     addusd:skk   :      0.02s CPU      0.02s WALL (       7 calls)
     addusd:dgemm :      0.14s CPU      0.17s WALL (       7 calls)
     addusd:qvan2 :      0.27s CPU      0.27s WALL (       7 calls)

     Called by *egterg:
     cdiaghg      :      2.18s CPU      2.28s WALL (    3879 calls)
     cegterg:over :      3.01s CPU      3.16s WALL (    2976 calls)
     cegterg:upda :      1.96s CPU      2.04s WALL (    2976 calls)
     cegterg:last :      3.19s CPU      3.31s WALL (    1963 calls)
     h_psi        :     48.84s CPU     51.26s WALL (    4008 calls)
     s_psi        :      2.61s CPU      2.74s WALL (    4008 calls)
     g_psi        :      0.60s CPU      0.63s WALL (    2976 calls)

     Called by h_psi:
     h_psi:calbec :      3.32s CPU      3.48s WALL (    4008 calls)
     vloc_psi     :     42.04s CPU     44.16s WALL (    4008 calls)
     add_vuspsi   :      2.86s CPU      3.00s WALL (    4008 calls)

     General routines
     calbec       :      4.97s CPU      5.24s WALL (    5556 calls)
     fft          :      1.26s CPU      1.32s WALL (     127 calls)
     ffts         :      0.02s CPU      0.02s WALL (      15 calls)
     fftw         :     40.20s CPU     42.29s WALL (   73176 calls)
     interpolate  :      0.07s CPU      0.07s WALL (       8 calls)

     Parallel routines

     PWSCF        :   1m33.08s CPU   1m37.74s WALL


   This run was terminated on:  17:57:50  23May2022            

=------------------------------------------------------------------------------=
   JOB DONE.
=------------------------------------------------------------------------------=
