
     Program PWSCF v.6.7MaX starts on 23May2022 at 18: 2:44 

     This program is part of the open-source Quantum ESPRESSO suite
     for quantum simulation of materials; please cite
         "P. Giannozzi et al., J. Phys.:Condens. Matter 21 395502 (2009);
         "P. Giannozzi et al., J. Phys.:Condens. Matter 29 465901 (2017);
          URL http://www.quantum-espresso.org", 
     in publications or presentations arising from this work. More details at
     http://www.quantum-espresso.org/quote

     Parallel version (MPI), running on     1 processors

     MPI processes distributed on     1 nodes
     Waiting for input...
     Reading input from standard input

     Current dimensions of program PWSCF are:
     Max number of different atomic species (ntypx) = 10
     Max number of k-points (npk) =  40000
     Max angular momentum in pseudopotentials (lmaxx) =  3

     Subspace diagonalization in iterative solution of the eigenvalue problem:
     a serial algorithm will be used


     G-vector sticks info
     --------------------
     sticks:   dense  smooth     PW     G-vecs:    dense   smooth      PW
     Sum         547     265     85                34301    12031    2223



     bravais-lattice index     =            4
     lattice parameter (alat)  =       4.6676  a.u.
     unit-cell volume          =     297.0066 (a.u.)^3
     number of atoms/cell      =            4
     number of atomic types    =            1
     number of electrons       =        16.00
     number of Kohn-Sham states=           12
     kinetic-energy cutoff     =      45.0000  Ry
     charge density cutoff     =     360.0000  Ry
     scf convergence threshold =      1.0E-09
     mixing beta               =       0.7000
     number of iterations used =            8  plain     mixing
     Exchange-correlation= PBE
                           (   1   4   3   4   0   0   0)

     celldm(1)=   4.667624  celldm(2)=   1.000000  celldm(3)=   3.372470
     celldm(4)=   0.000000  celldm(5)=   0.000000  celldm(6)=   0.000000

     crystal axes: (cart. coord. in units of alat)
               a(1) = (   1.000000   0.000000   0.000000 )  
               a(2) = (  -0.500000   0.866025   0.000000 )  
               a(3) = (   0.000000   0.000000   3.372470 )  

     reciprocal axes: (cart. coord. in units 2 pi/alat)
               b(1) = (  1.000000  0.577350 -0.000000 )  
               b(2) = (  0.000000  1.154701  0.000000 )  
               b(3) = (  0.000000 -0.000000  0.296519 )  


     PseudoPot. # 1 for C  read from file:
     /home/max/Desktop/graphite_DFT/Pseudo/C.pbe-n-rrkjus_psl.1.0.0.UPF
     MD5 check sum: 1fdd950c42eb37d8afe3dd2f8d12311e
     Pseudo is Ultrasoft + core correction, Zval =  4.0
     Generated using &quot;atomic&quot; code by A. Dal Corso  v.6.3MaX
     Using radial grid of 1073 points,  4 beta functions with: 
                l(1) =   0
                l(2) =   0
                l(3) =   1
                l(4) =   1
     Q(r) pseudized with 0 coefficients 


     atomic species   valence    mass     pseudopotential
        C              4.00    12.01100     C ( 1.00)

      8 Sym. Ops., with inversion, found ( 4 have fractional translation)


                                    s                        frac. trans.

      isym =  1     identity                                     

 cryst.   s( 1) = (     1          0          0      )
                  (     0          1          0      )
                  (     0          0          1      )

 cart.    s( 1) = (  1.0000000  0.0000000  0.0000000 )
                  (  0.0000000  1.0000000  0.0000000 )
                  (  0.0000000  0.0000000  1.0000000 )


      isym =  2     180 deg rotation - cart. axis [0,0,1]        

 cryst.   s( 2) = (    -1          0          0      )    f =(  0.0000000 )
                  (     0         -1          0      )       (  0.0000000 )
                  (     0          0          1      )       ( -0.5000000 )

 cart.    s( 2) = ( -1.0000000  0.0000000  0.0000000 )    f =(  0.0000000 )
                  (  0.0000000 -1.0000000  0.0000000 )       (  0.0000000 )
                  (  0.0000000  0.0000000  1.0000000 )       ( -1.6862348 )


      isym =  3     180 deg rotation - cart. axis [0,1,0]        

 cryst.   s( 3) = (    -1          0          0      )    f =(  0.0000000 )
                  (     1          1          0      )       (  0.0000000 )
                  (     0          0         -1      )       (  0.5000000 )

 cart.    s( 3) = ( -1.0000000  0.0000000  0.0000000 )    f =(  0.0000000 )
                  (  0.0000000  1.0000000  0.0000000 )       (  0.0000000 )
                  (  0.0000000  0.0000000 -1.0000000 )       (  1.6862348 )


      isym =  4     180 deg rotation - cart. axis [1,0,0]        

 cryst.   s( 4) = (     1          0          0      )
                  (    -1         -1          0      )
                  (     0          0         -1      )

 cart.    s( 4) = (  1.0000000  0.0000000  0.0000000 )
                  (  0.0000000 -1.0000000  0.0000000 )
                  (  0.0000000  0.0000000 -1.0000000 )


      isym =  5     inversion                                    

 cryst.   s( 5) = (    -1          0          0      )
                  (     0         -1          0      )
                  (     0          0         -1      )

 cart.    s( 5) = ( -1.0000000  0.0000000  0.0000000 )
                  (  0.0000000 -1.0000000  0.0000000 )
                  (  0.0000000  0.0000000 -1.0000000 )


      isym =  6     inv. 180 deg rotation - cart. axis [0,0,1]   

 cryst.   s( 6) = (     1          0          0      )    f =(  0.0000000 )
                  (     0          1          0      )       (  0.0000000 )
                  (     0          0         -1      )       (  0.5000000 )

 cart.    s( 6) = (  1.0000000  0.0000000  0.0000000 )    f =(  0.0000000 )
                  (  0.0000000  1.0000000  0.0000000 )       (  0.0000000 )
                  (  0.0000000  0.0000000 -1.0000000 )       (  1.6862348 )


      isym =  7     inv. 180 deg rotation - cart. axis [0,1,0]   

 cryst.   s( 7) = (     1          0          0      )    f =(  0.0000000 )
                  (    -1         -1          0      )       (  0.0000000 )
                  (     0          0          1      )       ( -0.5000000 )

 cart.    s( 7) = (  1.0000000  0.0000000  0.0000000 )    f =(  0.0000000 )
                  (  0.0000000 -1.0000000  0.0000000 )       (  0.0000000 )
                  (  0.0000000  0.0000000  1.0000000 )       ( -1.6862348 )


      isym =  8     inv. 180 deg rotation - cart. axis [1,0,0]   

 cryst.   s( 8) = (    -1          0          0      )
                  (     1          1          0      )
                  (     0          0          1      )

 cart.    s( 8) = ( -1.0000000  0.0000000  0.0000000 )
                  (  0.0000000  1.0000000  0.0000000 )
                  (  0.0000000  0.0000000  1.0000000 )


     point group D_2h (mmm) 
     there are  8 classes
     the character table:

       E     C2    C2'   C2''  i     s_v   s_v'  s_v''
A_g    1.00  1.00  1.00  1.00  1.00  1.00  1.00  1.00
B_1g   1.00  1.00 -1.00 -1.00  1.00  1.00 -1.00 -1.00
B_2g   1.00 -1.00  1.00 -1.00  1.00 -1.00  1.00 -1.00
B_3g   1.00 -1.00 -1.00  1.00  1.00 -1.00 -1.00  1.00
A_u    1.00  1.00  1.00  1.00 -1.00 -1.00 -1.00 -1.00
B_1u   1.00  1.00 -1.00 -1.00 -1.00 -1.00  1.00  1.00
B_2u   1.00 -1.00  1.00 -1.00 -1.00  1.00 -1.00  1.00
B_3u   1.00 -1.00 -1.00  1.00 -1.00  1.00  1.00 -1.00

     the symmetry operations in each class and the name of the first element:

     E        1
          identity                                               
     C2       2
          180 deg rotation - cart. axis [0,0,1]                  
     C2'      4
          180 deg rotation - cart. axis [1,0,0]                  
     C2''     3
          180 deg rotation - cart. axis [0,1,0]                  
     i        5
          inversion                                              
     s_v      6
          inv. 180 deg rotation - cart. axis [0,0,1]             
     s_v'     8
          inv. 180 deg rotation - cart. axis [1,0,0]             
     s_v''    7
          inv. 180 deg rotation - cart. axis [0,1,0]             

   Cartesian axes

     site n.     atom                  positions (alat units)
         1           C   tau(   1) = (   0.0000000   0.0000000   0.8431174  )
         2           C   tau(   2) = (   0.0000000   0.0000000   2.5293522  )
         3           C   tau(   3) = (   0.0000000   0.5772925   0.8431174  )
         4           C   tau(   4) = (   0.5000000   0.2887329   2.5293522  )

   Crystallographic axes

     site n.     atom                  positions (cryst. coord.)
         1           C   tau(   1) = (  0.0000000  0.0000000  0.2500000  )
         2           C   tau(   2) = (  0.0000000  0.0000000  0.7500000  )
         3           C   tau(   3) = (  0.3333000  0.6666000  0.2500000  )
         4           C   tau(   4) = (  0.6667000  0.3334000  0.7500000  )

     number of k points=   129  Methfessel-Paxton smearing, width (Ry)=  0.0050
                       cart. coord. in units 2pi/alat
        k(    1) = (   0.0000000   0.0000000   0.0000000), wk =   0.0034722
        k(    2) = (   0.0000000   0.0000000   0.0741297), wk =   0.0069444
        k(    3) = (   0.0000000   0.0000000  -0.1482593), wk =   0.0034722
        k(    4) = (   0.0000000   0.0962250   0.0000000), wk =   0.0069444
        k(    5) = (   0.0000000   0.0962250   0.0741297), wk =   0.0138889
        k(    6) = (   0.0000000   0.0962250  -0.1482593), wk =   0.0069444
        k(    7) = (   0.0000000   0.1924501   0.0000000), wk =   0.0069444
        k(    8) = (   0.0000000   0.1924501   0.0741297), wk =   0.0138889
        k(    9) = (   0.0000000   0.1924501  -0.1482593), wk =   0.0069444
        k(   10) = (   0.0000000   0.2886751   0.0000000), wk =   0.0069444
        k(   11) = (   0.0000000   0.2886751   0.0741297), wk =   0.0138889
        k(   12) = (   0.0000000   0.2886751  -0.1482593), wk =   0.0069444
        k(   13) = (   0.0000000   0.3849002   0.0000000), wk =   0.0069444
        k(   14) = (   0.0000000   0.3849002   0.0741297), wk =   0.0138889
        k(   15) = (   0.0000000   0.3849002  -0.1482593), wk =   0.0069444
        k(   16) = (   0.0000000   0.4811252   0.0000000), wk =   0.0069444
        k(   17) = (   0.0000000   0.4811252   0.0741297), wk =   0.0138889
        k(   18) = (   0.0000000   0.4811252  -0.1482593), wk =   0.0069444
        k(   19) = (   0.0000000  -0.5773503   0.0000000), wk =   0.0034722
        k(   20) = (   0.0000000  -0.5773503   0.0741297), wk =   0.0069444
        k(   21) = (   0.0000000  -0.5773503  -0.1482593), wk =   0.0034722
        k(   22) = (   0.0833333   0.1443376   0.0000000), wk =   0.0138889
        k(   23) = (   0.0833333   0.1443376   0.0741297), wk =   0.0277778
        k(   24) = (   0.0833333   0.1443376  -0.1482593), wk =   0.0138889
        k(   25) = (   0.0833333   0.2405626   0.0000000), wk =   0.0138889
        k(   26) = (   0.0833333   0.2405626   0.0741297), wk =   0.0277778
        k(   27) = (   0.0833333   0.2405626  -0.1482593), wk =   0.0138889
        k(   28) = (   0.0833333   0.3367877   0.0000000), wk =   0.0138889
        k(   29) = (   0.0833333   0.3367877   0.0741297), wk =   0.0277778
        k(   30) = (   0.0833333   0.3367877  -0.1482593), wk =   0.0138889
        k(   31) = (   0.0833333   0.4330127   0.0000000), wk =   0.0138889
        k(   32) = (   0.0833333   0.4330127   0.0741297), wk =   0.0277778
        k(   33) = (   0.0833333   0.4330127  -0.1482593), wk =   0.0138889
        k(   34) = (   0.0833333   0.5292377   0.0000000), wk =   0.0138889
        k(   35) = (   0.0833333   0.5292377   0.0741297), wk =   0.0277778
        k(   36) = (   0.0833333   0.5292377  -0.1482593), wk =   0.0138889
        k(   37) = (   0.1666667   0.2886751   0.0000000), wk =   0.0138889
        k(   38) = (   0.1666667   0.2886751   0.0741297), wk =   0.0277778
        k(   39) = (   0.1666667   0.2886751  -0.1482593), wk =   0.0138889
        k(   40) = (   0.1666667   0.3849002   0.0000000), wk =   0.0138889
        k(   41) = (   0.1666667   0.3849002   0.0741297), wk =   0.0277778
        k(   42) = (   0.1666667   0.3849002  -0.1482593), wk =   0.0138889
        k(   43) = (   0.1666667   0.4811252   0.0000000), wk =   0.0138889
        k(   44) = (   0.1666667   0.4811252   0.0741297), wk =   0.0277778
        k(   45) = (   0.1666667   0.4811252  -0.1482593), wk =   0.0138889
        k(   46) = (   0.1666667   0.5773503   0.0000000), wk =   0.0069444
        k(   47) = (   0.1666667   0.5773503   0.0741297), wk =   0.0138889
        k(   48) = (   0.1666667   0.5773503  -0.1482593), wk =   0.0069444
        k(   49) = (   0.2500000   0.4330127   0.0000000), wk =   0.0138889
        k(   50) = (   0.2500000   0.4330127   0.0741297), wk =   0.0277778
        k(   51) = (   0.2500000   0.4330127  -0.1482593), wk =   0.0138889
        k(   52) = (   0.2500000   0.5292377   0.0000000), wk =   0.0138889
        k(   53) = (   0.2500000   0.5292377   0.0741297), wk =   0.0277778
        k(   54) = (   0.2500000   0.5292377  -0.1482593), wk =   0.0138889
        k(   55) = (   0.3333333   0.5773503   0.0000000), wk =   0.0069444
        k(   56) = (   0.3333333   0.5773503   0.0741297), wk =   0.0138889
        k(   57) = (   0.3333333   0.5773503  -0.1482593), wk =   0.0069444
        k(   58) = (  -0.0833333  -0.0481125   0.0000000), wk =   0.0138889
        k(   59) = (  -0.0833333  -0.0481125  -0.0741297), wk =   0.0277778
        k(   60) = (  -0.0833333  -0.0481125   0.1482593), wk =   0.0138889
        k(   61) = (  -0.1666667  -0.0962250   0.0000000), wk =   0.0138889
        k(   62) = (  -0.1666667  -0.0962250  -0.0741297), wk =   0.0277778
        k(   63) = (  -0.1666667  -0.0962250   0.1482593), wk =   0.0138889
        k(   64) = (  -0.2500000  -0.1443376   0.0000000), wk =   0.0138889
        k(   65) = (  -0.2500000  -0.1443376  -0.0741297), wk =   0.0277778
        k(   66) = (  -0.2500000  -0.1443376   0.1482593), wk =   0.0138889
        k(   67) = (  -0.3333333  -0.1924501   0.0000000), wk =   0.0138889
        k(   68) = (  -0.3333333  -0.1924501  -0.0741297), wk =   0.0277778
        k(   69) = (  -0.3333333  -0.1924501   0.1482593), wk =   0.0138889
        k(   70) = (  -0.4166667  -0.2405626   0.0000000), wk =   0.0138889
        k(   71) = (  -0.4166667  -0.2405626  -0.0741297), wk =   0.0277778
        k(   72) = (  -0.4166667  -0.2405626   0.1482593), wk =   0.0138889
        k(   73) = (   0.5000000   0.2886751   0.0000000), wk =   0.0069444
        k(   74) = (   0.5000000   0.2886751  -0.0741297), wk =   0.0138889
        k(   75) = (   0.5000000   0.2886751   0.1482593), wk =   0.0069444
        k(   76) = (   0.1666667   0.0000000   0.0000000), wk =   0.0069444
        k(   77) = (   0.1666667   0.0000000  -0.0741297), wk =   0.0138889
        k(   78) = (   0.1666667   0.0000000   0.1482593), wk =   0.0069444
        k(   79) = (  -0.1666667  -0.1924501   0.0000000), wk =   0.0138889
        k(   80) = (   0.2500000  -0.0481125   0.0000000), wk =   0.0138889
        k(   81) = (  -0.1666667  -0.1924501  -0.0741297), wk =   0.0277778
        k(   82) = (   0.2500000  -0.0481125  -0.0741297), wk =   0.0277778
        k(   83) = (  -0.1666667  -0.1924501   0.1482593), wk =   0.0138889
        k(   84) = (   0.2500000  -0.0481125   0.1482593), wk =   0.0138889
        k(   85) = (  -0.2500000  -0.2405626   0.0000000), wk =   0.0138889
        k(   86) = (   0.3333333  -0.0962250   0.0000000), wk =   0.0138889
        k(   87) = (  -0.2500000  -0.2405626  -0.0741297), wk =   0.0277778
        k(   88) = (   0.3333333  -0.0962250  -0.0741297), wk =   0.0277778
        k(   89) = (  -0.2500000  -0.2405626   0.1482593), wk =   0.0138889
        k(   90) = (   0.3333333  -0.0962250   0.1482593), wk =   0.0138889
        k(   91) = (  -0.3333333  -0.2886751   0.0000000), wk =   0.0138889
        k(   92) = (   0.4166667  -0.1443376   0.0000000), wk =   0.0138889
        k(   93) = (  -0.3333333  -0.2886751  -0.0741297), wk =   0.0277778
        k(   94) = (   0.4166667  -0.1443376  -0.0741297), wk =   0.0277778
        k(   95) = (  -0.3333333  -0.2886751   0.1482593), wk =   0.0138889
        k(   96) = (   0.4166667  -0.1443376   0.1482593), wk =   0.0138889
        k(   97) = (  -0.4166667  -0.3367877   0.0000000), wk =   0.0138889
        k(   98) = (   0.5000000  -0.1924501   0.0000000), wk =   0.0138889
        k(   99) = (  -0.4166667  -0.3367877  -0.0741297), wk =   0.0277778
        k(  100) = (   0.5000000  -0.1924501  -0.0741297), wk =   0.0277778
        k(  101) = (  -0.4166667  -0.3367877   0.1482593), wk =   0.0138889
        k(  102) = (   0.5000000  -0.1924501   0.1482593), wk =   0.0138889
        k(  103) = (   0.3333333   0.0000000   0.0000000), wk =   0.0069444
        k(  104) = (   0.3333333   0.0000000  -0.0741297), wk =   0.0138889
        k(  105) = (   0.3333333   0.0000000   0.1482593), wk =   0.0069444
        k(  106) = (  -0.2500000  -0.3367877   0.0000000), wk =   0.0138889
        k(  107) = (   0.4166667  -0.0481125   0.0000000), wk =   0.0138889
        k(  108) = (  -0.2500000  -0.3367877  -0.0741297), wk =   0.0277778
        k(  109) = (   0.4166667  -0.0481125  -0.0741297), wk =   0.0277778
        k(  110) = (  -0.2500000  -0.3367877   0.1482593), wk =   0.0138889
        k(  111) = (   0.4166667  -0.0481125   0.1482593), wk =   0.0138889
        k(  112) = (  -0.3333333  -0.3849002   0.0000000), wk =   0.0138889
        k(  113) = (   0.5000000  -0.0962250   0.0000000), wk =   0.0138889
        k(  114) = (  -0.3333333  -0.3849002  -0.0741297), wk =   0.0277778
        k(  115) = (   0.5000000  -0.0962250  -0.0741297), wk =   0.0277778
        k(  116) = (  -0.3333333  -0.3849002   0.1482593), wk =   0.0138889
        k(  117) = (   0.5000000  -0.0962250   0.1482593), wk =   0.0138889
        k(  118) = (  -0.4166667  -0.4330127   0.0000000), wk =   0.0138889
        k(  119) = (  -0.4166667  -0.4330127  -0.0741297), wk =   0.0277778
        k(  120) = (  -0.4166667  -0.4330127   0.1482593), wk =   0.0138889
        k(  121) = (   0.5000000  -0.0000000   0.0000000), wk =   0.0069444
        k(  122) = (   0.5000000  -0.0000000  -0.0741297), wk =   0.0138889
        k(  123) = (   0.5000000  -0.0000000   0.1482593), wk =   0.0069444
        k(  124) = (  -0.3333333  -0.4811252   0.0000000), wk =   0.0138889
        k(  125) = (   0.5833333  -0.0481125   0.0000000), wk =   0.0138889
        k(  126) = (  -0.3333333  -0.4811252  -0.0741297), wk =   0.0277778
        k(  127) = (   0.5833333  -0.0481125  -0.0741297), wk =   0.0277778
        k(  128) = (  -0.3333333  -0.4811252   0.1482593), wk =   0.0138889
        k(  129) = (   0.5833333  -0.0481125   0.1482593), wk =   0.0138889

                       cryst. coord.
        k(    1) = (   0.0000000   0.0000000   0.0000000), wk =   0.0034722
        k(    2) = (   0.0000000   0.0000000   0.2500000), wk =   0.0069444
        k(    3) = (   0.0000000   0.0000000  -0.5000000), wk =   0.0034722
        k(    4) = (   0.0000000   0.0833333   0.0000000), wk =   0.0069444
        k(    5) = (   0.0000000   0.0833333   0.2500000), wk =   0.0138889
        k(    6) = (   0.0000000   0.0833333  -0.5000000), wk =   0.0069444
        k(    7) = (   0.0000000   0.1666667   0.0000000), wk =   0.0069444
        k(    8) = (   0.0000000   0.1666667   0.2500000), wk =   0.0138889
        k(    9) = (   0.0000000   0.1666667  -0.5000000), wk =   0.0069444
        k(   10) = (   0.0000000   0.2500000   0.0000000), wk =   0.0069444
        k(   11) = (   0.0000000   0.2500000   0.2500000), wk =   0.0138889
        k(   12) = (   0.0000000   0.2500000  -0.5000000), wk =   0.0069444
        k(   13) = (   0.0000000   0.3333333   0.0000000), wk =   0.0069444
        k(   14) = (   0.0000000   0.3333333   0.2500000), wk =   0.0138889
        k(   15) = (   0.0000000   0.3333333  -0.5000000), wk =   0.0069444
        k(   16) = (   0.0000000   0.4166667   0.0000000), wk =   0.0069444
        k(   17) = (   0.0000000   0.4166667   0.2500000), wk =   0.0138889
        k(   18) = (   0.0000000   0.4166667  -0.5000000), wk =   0.0069444
        k(   19) = (   0.0000000  -0.5000000   0.0000000), wk =   0.0034722
        k(   20) = (   0.0000000  -0.5000000   0.2500000), wk =   0.0069444
        k(   21) = (   0.0000000  -0.5000000  -0.5000000), wk =   0.0034722
        k(   22) = (   0.0833333   0.0833333   0.0000000), wk =   0.0138889
        k(   23) = (   0.0833333   0.0833333   0.2500000), wk =   0.0277778
        k(   24) = (   0.0833333   0.0833333  -0.5000000), wk =   0.0138889
        k(   25) = (   0.0833333   0.1666667   0.0000000), wk =   0.0138889
        k(   26) = (   0.0833333   0.1666667   0.2500000), wk =   0.0277778
        k(   27) = (   0.0833333   0.1666667  -0.5000000), wk =   0.0138889
        k(   28) = (   0.0833333   0.2500000   0.0000000), wk =   0.0138889
        k(   29) = (   0.0833333   0.2500000   0.2500000), wk =   0.0277778
        k(   30) = (   0.0833333   0.2500000  -0.5000000), wk =   0.0138889
        k(   31) = (   0.0833333   0.3333333   0.0000000), wk =   0.0138889
        k(   32) = (   0.0833333   0.3333333   0.2500000), wk =   0.0277778
        k(   33) = (   0.0833333   0.3333333  -0.5000000), wk =   0.0138889
        k(   34) = (   0.0833333   0.4166667   0.0000000), wk =   0.0138889
        k(   35) = (   0.0833333   0.4166667   0.2500000), wk =   0.0277778
        k(   36) = (   0.0833333   0.4166667  -0.5000000), wk =   0.0138889
        k(   37) = (   0.1666667   0.1666667   0.0000000), wk =   0.0138889
        k(   38) = (   0.1666667   0.1666667   0.2500000), wk =   0.0277778
        k(   39) = (   0.1666667   0.1666667  -0.5000000), wk =   0.0138889
        k(   40) = (   0.1666667   0.2500000   0.0000000), wk =   0.0138889
        k(   41) = (   0.1666667   0.2500000   0.2500000), wk =   0.0277778
        k(   42) = (   0.1666667   0.2500000  -0.5000000), wk =   0.0138889
        k(   43) = (   0.1666667   0.3333333   0.0000000), wk =   0.0138889
        k(   44) = (   0.1666667   0.3333333   0.2500000), wk =   0.0277778
        k(   45) = (   0.1666667   0.3333333  -0.5000000), wk =   0.0138889
        k(   46) = (   0.1666667   0.4166667   0.0000000), wk =   0.0069444
        k(   47) = (   0.1666667   0.4166667   0.2500000), wk =   0.0138889
        k(   48) = (   0.1666667   0.4166667  -0.5000000), wk =   0.0069444
        k(   49) = (   0.2500000   0.2500000   0.0000000), wk =   0.0138889
        k(   50) = (   0.2500000   0.2500000   0.2500000), wk =   0.0277778
        k(   51) = (   0.2500000   0.2500000  -0.5000000), wk =   0.0138889
        k(   52) = (   0.2500000   0.3333333   0.0000000), wk =   0.0138889
        k(   53) = (   0.2500000   0.3333333   0.2500000), wk =   0.0277778
        k(   54) = (   0.2500000   0.3333333  -0.5000000), wk =   0.0138889
        k(   55) = (   0.3333333   0.3333333   0.0000000), wk =   0.0069444
        k(   56) = (   0.3333333   0.3333333   0.2500000), wk =   0.0138889
        k(   57) = (   0.3333333   0.3333333  -0.5000000), wk =   0.0069444
        k(   58) = (  -0.0833333  -0.0000000   0.0000000), wk =   0.0138889
        k(   59) = (  -0.0833333  -0.0000000  -0.2500000), wk =   0.0277778
        k(   60) = (  -0.0833333  -0.0000000   0.5000000), wk =   0.0138889
        k(   61) = (  -0.1666667  -0.0000000   0.0000000), wk =   0.0138889
        k(   62) = (  -0.1666667  -0.0000000  -0.2500000), wk =   0.0277778
        k(   63) = (  -0.1666667  -0.0000000   0.5000000), wk =   0.0138889
        k(   64) = (  -0.2500000   0.0000000   0.0000000), wk =   0.0138889
        k(   65) = (  -0.2500000   0.0000000  -0.2500000), wk =   0.0277778
        k(   66) = (  -0.2500000   0.0000000   0.5000000), wk =   0.0138889
        k(   67) = (  -0.3333333  -0.0000000   0.0000000), wk =   0.0138889
        k(   68) = (  -0.3333333  -0.0000000  -0.2500000), wk =   0.0277778
        k(   69) = (  -0.3333333  -0.0000000   0.5000000), wk =   0.0138889
        k(   70) = (  -0.4166667   0.0000000   0.0000000), wk =   0.0138889
        k(   71) = (  -0.4166667   0.0000000  -0.2500000), wk =   0.0277778
        k(   72) = (  -0.4166667   0.0000000   0.5000000), wk =   0.0138889
        k(   73) = (   0.5000000   0.0000000   0.0000000), wk =   0.0069444
        k(   74) = (   0.5000000   0.0000000  -0.2500000), wk =   0.0138889
        k(   75) = (   0.5000000   0.0000000   0.5000000), wk =   0.0069444
        k(   76) = (   0.1666667  -0.0833333   0.0000000), wk =   0.0069444
        k(   77) = (   0.1666667  -0.0833333  -0.2500000), wk =   0.0138889
        k(   78) = (   0.1666667  -0.0833333   0.5000000), wk =   0.0069444
        k(   79) = (  -0.1666667  -0.0833333   0.0000000), wk =   0.0138889
        k(   80) = (   0.2500000  -0.1666667   0.0000000), wk =   0.0138889
        k(   81) = (  -0.1666667  -0.0833333  -0.2500000), wk =   0.0277778
        k(   82) = (   0.2500000  -0.1666667  -0.2500000), wk =   0.0277778
        k(   83) = (  -0.1666667  -0.0833333   0.5000000), wk =   0.0138889
        k(   84) = (   0.2500000  -0.1666667   0.5000000), wk =   0.0138889
        k(   85) = (  -0.2500000  -0.0833333   0.0000000), wk =   0.0138889
        k(   86) = (   0.3333333  -0.2500000   0.0000000), wk =   0.0138889
        k(   87) = (  -0.2500000  -0.0833333  -0.2500000), wk =   0.0277778
        k(   88) = (   0.3333333  -0.2500000  -0.2500000), wk =   0.0277778
        k(   89) = (  -0.2500000  -0.0833333   0.5000000), wk =   0.0138889
        k(   90) = (   0.3333333  -0.2500000   0.5000000), wk =   0.0138889
        k(   91) = (  -0.3333333  -0.0833333   0.0000000), wk =   0.0138889
        k(   92) = (   0.4166667  -0.3333333   0.0000000), wk =   0.0138889
        k(   93) = (  -0.3333333  -0.0833333  -0.2500000), wk =   0.0277778
        k(   94) = (   0.4166667  -0.3333333  -0.2500000), wk =   0.0277778
        k(   95) = (  -0.3333333  -0.0833333   0.5000000), wk =   0.0138889
        k(   96) = (   0.4166667  -0.3333333   0.5000000), wk =   0.0138889
        k(   97) = (  -0.4166667  -0.0833333   0.0000000), wk =   0.0138889
        k(   98) = (   0.5000000  -0.4166667   0.0000000), wk =   0.0138889
        k(   99) = (  -0.4166667  -0.0833333  -0.2500000), wk =   0.0277778
        k(  100) = (   0.5000000  -0.4166667  -0.2500000), wk =   0.0277778
        k(  101) = (  -0.4166667  -0.0833333   0.5000000), wk =   0.0138889
        k(  102) = (   0.5000000  -0.4166667   0.5000000), wk =   0.0138889
        k(  103) = (   0.3333333  -0.1666667   0.0000000), wk =   0.0069444
        k(  104) = (   0.3333333  -0.1666667  -0.2500000), wk =   0.0138889
        k(  105) = (   0.3333333  -0.1666667   0.5000000), wk =   0.0069444
        k(  106) = (  -0.2500000  -0.1666667   0.0000000), wk =   0.0138889
        k(  107) = (   0.4166667  -0.2500000   0.0000000), wk =   0.0138889
        k(  108) = (  -0.2500000  -0.1666667  -0.2500000), wk =   0.0277778
        k(  109) = (   0.4166667  -0.2500000  -0.2500000), wk =   0.0277778
        k(  110) = (  -0.2500000  -0.1666667   0.5000000), wk =   0.0138889
        k(  111) = (   0.4166667  -0.2500000   0.5000000), wk =   0.0138889
        k(  112) = (  -0.3333333  -0.1666667   0.0000000), wk =   0.0138889
        k(  113) = (   0.5000000  -0.3333333   0.0000000), wk =   0.0138889
        k(  114) = (  -0.3333333  -0.1666667  -0.2500000), wk =   0.0277778
        k(  115) = (   0.5000000  -0.3333333  -0.2500000), wk =   0.0277778
        k(  116) = (  -0.3333333  -0.1666667   0.5000000), wk =   0.0138889
        k(  117) = (   0.5000000  -0.3333333   0.5000000), wk =   0.0138889
        k(  118) = (  -0.4166667  -0.1666667   0.0000000), wk =   0.0138889
        k(  119) = (  -0.4166667  -0.1666667  -0.2500000), wk =   0.0277778
        k(  120) = (  -0.4166667  -0.1666667   0.5000000), wk =   0.0138889
        k(  121) = (   0.5000000  -0.2500000   0.0000000), wk =   0.0069444
        k(  122) = (   0.5000000  -0.2500000  -0.2500000), wk =   0.0138889
        k(  123) = (   0.5000000  -0.2500000   0.5000000), wk =   0.0069444
        k(  124) = (  -0.3333333  -0.2500000   0.0000000), wk =   0.0138889
        k(  125) = (   0.5833333  -0.3333333   0.0000000), wk =   0.0138889
        k(  126) = (  -0.3333333  -0.2500000  -0.2500000), wk =   0.0277778
        k(  127) = (   0.5833333  -0.3333333  -0.2500000), wk =   0.0277778
        k(  128) = (  -0.3333333  -0.2500000   0.5000000), wk =   0.0138889
        k(  129) = (   0.5833333  -0.3333333   0.5000000), wk =   0.0138889

     Dense  grid:    34301 G-vectors     FFT dimensions: (  30,  30,  96)

     Smooth grid:    12031 G-vectors     FFT dimensions: (  20,  20,  72)

     Dynamical RAM for                 wfc:       0.28 MB

     Dynamical RAM for     wfc (w. buffer):      36.04 MB

     Dynamical RAM for           str. fact:       0.52 MB

     Dynamical RAM for           local pot:       0.00 MB

     Dynamical RAM for          nlocal pot:       0.74 MB

     Dynamical RAM for                qrad:       0.44 MB

     Dynamical RAM for          rho,v,vnew:       3.55 MB

     Dynamical RAM for               rhoin:       1.18 MB

     Dynamical RAM for            rho*nmix:       8.37 MB

     Dynamical RAM for           G-vectors:       2.05 MB

     Dynamical RAM for          h,s,v(r/c):       0.03 MB

     Dynamical RAM for          <psi|beta>:       0.01 MB

     Dynamical RAM for                 psi:       0.55 MB

     Dynamical RAM for                hpsi:       0.55 MB

     Dynamical RAM for                spsi:       0.55 MB

     Dynamical RAM for      wfcinit/wfcrot:       0.75 MB

     Dynamical RAM for           addusdens:      24.60 MB

     Dynamical RAM for          addusforce:      28.00 MB

     Dynamical RAM for         addusstress:      26.17 MB

     Estimated static dynamical RAM per process >      57.24 MB

     Estimated max dynamical RAM per process >      85.24 MB

     Check: negative core charge=   -0.000010

     Initial potential from superposition of free atoms

     starting charge   15.99983, renormalised to   16.00000
     Starting wfcs are   16 randomized atomic wfcs

     total cpu time spent up to now is        4.6 secs

     Self-consistent Calculation

     iteration #  1     ecut=    45.00 Ry     beta= 0.70
     Davidson diagonalization with overlap
     ethr =  1.00E-02,  avg # of iterations =  2.8

     total cpu time spent up to now is       12.8 secs

     total energy              =     -49.66210043 Ry
     estimated scf accuracy    <       0.37704761 Ry

     iteration #  2     ecut=    45.00 Ry     beta= 0.70
     Davidson diagonalization with overlap
     ethr =  2.36E-03,  avg # of iterations =  2.4

     total cpu time spent up to now is       19.3 secs

     total energy              =     -49.71320704 Ry
     estimated scf accuracy    <       0.00437057 Ry

     iteration #  3     ecut=    45.00 Ry     beta= 0.70
     Davidson diagonalization with overlap
     c_bands:  1 eigenvalues not converged
     ethr =  2.73E-05,  avg # of iterations =  7.0

     total cpu time spent up to now is       28.5 secs

     total energy              =     -49.71358202 Ry
     estimated scf accuracy    <       0.00031167 Ry

     iteration #  4     ecut=    45.00 Ry     beta= 0.70
     Davidson diagonalization with overlap
     ethr =  1.95E-06,  avg # of iterations =  4.0

     total cpu time spent up to now is       35.8 secs

     total energy              =     -49.71359957 Ry
     estimated scf accuracy    <       0.00000200 Ry

     iteration #  5     ecut=    45.00 Ry     beta= 0.70
     Davidson diagonalization with overlap
     ethr =  1.25E-08,  avg # of iterations =  2.9

     total cpu time spent up to now is       43.9 secs

     total energy              =     -49.71360068 Ry
     estimated scf accuracy    <       0.00000005 Ry

     iteration #  6     ecut=    45.00 Ry     beta= 0.70
     Davidson diagonalization with overlap
     ethr =  3.40E-10,  avg # of iterations =  2.2

     total cpu time spent up to now is       51.8 secs

     total energy              =     -49.71360069 Ry
     estimated scf accuracy    <          2.9E-09 Ry

     iteration #  7     ecut=    45.00 Ry     beta= 0.70
     Davidson diagonalization with overlap
     ethr =  1.80E-11,  avg # of iterations =  2.1

     total cpu time spent up to now is       59.9 secs

     End of self-consistent calculation

          k = 0.0000 0.0000 0.0000 (  1497 PWs)   bands (ev):

   -14.7007 -14.6554  -3.0625  -2.4986   1.7282   1.7297   1.7324   1.7339
     7.9710  13.0926  13.0982  13.0992

     occupation numbers 
     1.0000   1.0000   1.0000   1.0000   1.0000   1.0000   1.0000   1.0000
    -0.0000  -0.0000  -0.0000  -0.0000

          k = 0.0000 0.0000 0.0741 (  1480 PWs)   bands (ev):

   -14.6940 -14.6621  -2.9863  -2.5883   1.7284   1.7295   1.7327   1.7337
     8.3336  10.6646  13.0943  13.0987

     occupation numbers 
     1.0000   1.0000   1.0000   1.0000   1.0000   1.0000   1.0000   1.0000
    -0.0000  -0.0000  -0.0000  -0.0000

          k = 0.0000 0.0000-0.1483 (  1450 PWs)   bands (ev):

   -14.6780 -14.6780  -2.7939  -2.7939   1.7290   1.7290   1.7332   1.7332
     9.3279   9.3279  13.0959  13.0960

     occupation numbers 
     1.0000   1.0000   1.0000   1.0000   1.0000   1.0000   1.0000   1.0000
    -0.0000  -0.0000  -0.0000  -0.0000

          k = 0.0000 0.0962 0.0000 (  1493 PWs)   bands (ev):

   -14.5371 -14.4925  -2.8651  -2.3059   1.0792   1.0823   1.3951   1.3976
     8.1835  11.6850  13.1502  13.1751

     occupation numbers 
     1.0000   1.0000   1.0000   1.0000   1.0000   1.0000   1.0000   1.0000
    -0.0000  -0.0000  -0.0000  -0.0000

          k = 0.0000 0.0962 0.0741 (  1489 PWs)   bands (ev):

   -14.5306 -14.4991  -2.7894  -2.3948   1.0797   1.0819   1.3955   1.3972
     8.5442  10.8627  13.1610  13.1736

     occupation numbers 
     1.0000   1.0000   1.0000   1.0000   1.0000   1.0000   1.0000   1.0000
    -0.0000  -0.0000  -0.0000  -0.0000

          k = 0.0000 0.0962-0.1483 (  1486 PWs)   bands (ev):

   -14.5149 -14.5149  -2.5987  -2.5987   1.0808   1.0808   1.3963   1.3963
     9.5333   9.5333  13.1690  13.1690

     occupation numbers 
     1.0000   1.0000   1.0000   1.0000   1.0000   1.0000   1.0000   1.0000
    -0.0000  -0.0000  -0.0000  -0.0000

          k = 0.0000 0.1925 0.0000 (  1503 PWs)   bands (ev):

   -14.0484 -14.0054  -2.2777  -1.7336  -0.5540  -0.5473   0.6053   0.6090
     8.8213  12.2524  13.0747  13.1290

     occupation numbers 
     1.0000   1.0000   1.0000   1.0000   1.0000   1.0000   1.0000   1.0000
    -0.0000  -0.0000  -0.0000  -0.0000

          k = 0.0000 0.1925 0.0741 (  1496 PWs)   bands (ev):

   -14.0421 -14.0118  -2.2039  -1.8199  -0.5531  -0.5483   0.6059   0.6084
     9.1757  11.4479  13.1004  13.1261

     occupation numbers 
     1.0000   1.0000   1.0000   1.0000   1.0000   1.0000   1.0000   1.0000
    -0.0000  -0.0000  -0.0000  -0.0000

          k = 0.0000 0.1925-0.1483 (  1490 PWs)   bands (ev):

   -14.0270 -14.0270  -2.0181  -2.0181  -0.5507  -0.5507   0.6072   0.6072
    10.1468  10.1468  13.1166  13.1166

     occupation numbers 
     1.0000   1.0000   1.0000   1.0000   1.0000   1.0000   1.0000   1.0000
    -0.0000  -0.0000  -0.0000  -0.0000

          k = 0.0000 0.2887 0.0000 (  1497 PWs)   bands (ev):

   -13.2402 -13.2000  -2.6467  -2.6353  -1.3183  -0.8021  -0.2718  -0.2673
     9.8818  11.9180  12.0373  12.7872

     occupation numbers 
     1.0000   1.0000   1.0000   1.0000   1.0000   1.0000   1.0000   1.0000
    -0.0000  -0.0000  -0.0000  -0.0000

          k = 0.0000 0.2887 0.0741 (  1502 PWs)   bands (ev):

   -13.2343 -13.2060  -2.6451  -2.6370  -1.2480  -0.8836  -0.2711  -0.2680
    10.2187  11.8842  12.0061  12.5405

     occupation numbers 
     1.0000   1.0000   1.0000   1.0000   1.0000   1.0000   1.0000   1.0000
    -0.0000  -0.0000  -0.0000  -0.0000

          k = 0.0000 0.2887-0.1483 (  1508 PWs)   bands (ev):

   -13.2202 -13.2202  -2.6410  -2.6410  -1.0714  -1.0714  -0.2695  -0.2695
    11.1177  11.1177  12.0684  12.0685

     occupation numbers 
     1.0000   1.0000   1.0000   1.0000   1.0000   1.0000   1.0000   1.0000
    -0.0000  -0.0000  -0.0000  -0.0000

          k = 0.0000 0.3849 0.0000 (  1504 PWs)   bands (ev):

   -12.1248 -12.0884  -4.8438  -4.8272  -1.0031  -0.9982  -0.0336   0.4341
     9.5903   9.8061  11.3481  12.4536

     occupation numbers 
     1.0000   1.0000   1.0000   1.0000   1.0000   1.0000   1.0000   1.0000
    -0.0000  -0.0000  -0.0000  -0.0000

          k = 0.0000 0.3849 0.0741 (  1509 PWs)   bands (ev):

   -12.1195 -12.0938  -4.8414  -4.8297  -1.0024  -0.9989   0.0305   0.3609
     9.6128   9.7666  11.6824  12.4535

     occupation numbers 
     1.0000   1.0000   1.0000   1.0000   1.0000   1.0000   1.0000   1.0000
    -0.0000  -0.0000  -0.0000  -0.0000

          k = 0.0000 0.3849-0.1483 (  1502 PWs)   bands (ev):

   -12.1067 -12.1067  -4.8355  -4.8355  -1.0007  -1.0007   0.1912   0.1912
     9.6822   9.6822  12.3705  12.3706

     occupation numbers 
     1.0000   1.0000   1.0000   1.0000   1.0000   1.0000   1.0000   1.0000
    -0.0000  -0.0000  -0.0000  -0.0000

          k = 0.0000 0.4811 0.0000 (  1508 PWs)   bands (ev):

   -10.7334 -10.7019  -6.9371  -6.9159  -1.4748  -1.4696   1.4279   1.7956
     7.4405   7.7127  12.2032  12.2603

     occupation numbers 
     1.0000   1.0000   1.0000   1.0000   1.0000   1.0000   1.0000   1.0000
    -0.0000  -0.0000  -0.0000  -0.0000

          k = 0.0000 0.4811 0.0741 (  1510 PWs)   bands (ev):

   -10.7289 -10.7065  -6.9340  -6.9190  -1.4740  -1.4704   1.4796   1.7394
     7.4737   7.6662  12.2130  12.2537

     occupation numbers 
     1.0000   1.0000   1.0000   1.0000   1.0000   1.0000   1.0000   1.0000
    -0.0000  -0.0000  -0.0000  -0.0000

          k = 0.0000 0.4811-0.1483 (  1500 PWs)   bands (ev):

   -10.7177 -10.7177  -6.9264  -6.9264  -1.4722  -1.4722   1.6072   1.6072
     7.5634   7.5634  12.2346  12.2346

     occupation numbers 
     1.0000   1.0000   1.0000   1.0000   1.0000   1.0000   1.0000   1.0000
    -0.0000  -0.0000  -0.0000  -0.0000

          k = 0.0000-0.5774 0.0000 (  1508 PWs)   bands (ev):

    -9.4719  -9.4570  -8.4275  -8.4155  -1.6367  -1.6315   2.3579   2.5307
     6.3738   6.6115  12.1209  12.1869

     occupation numbers 
     1.0000   1.0000   1.0000   1.0000   1.0000   1.0000   1.0000   1.0000
    -0.0000  -0.0000  -0.0000  -0.0000

          k = 0.0000-0.5774 0.0741 (  1520 PWs)   bands (ev):

    -9.4698  -9.4592  -8.4258  -8.4173  -1.6359  -1.6322   2.3847   2.5071
     6.3985   6.5665  12.1305  12.1771

     occupation numbers 
     1.0000   1.0000   1.0000   1.0000   1.0000   1.0000   1.0000   1.0000
    -0.0000  -0.0000  -0.0000  -0.0000

          k = 0.0000-0.5774-0.1483 (  1520 PWs)   bands (ev):

    -9.4644  -9.4644  -8.4217  -8.4217  -1.6341  -1.6341   2.4475   2.4475
     6.4725   6.4725  12.1537  12.1537

     occupation numbers 
     1.0000   1.0000   1.0000   1.0000   1.0000   1.0000   1.0000   1.0000
    -0.0000  -0.0000  -0.0000  -0.0000

          k = 0.0833 0.1443 0.0000 (  1505 PWs)   bands (ev):

   -14.2110 -14.1675  -2.4726  -1.9233   0.0494   0.0526   0.7205   0.7226
     8.6091  12.0695  13.4282  13.4786

     occupation numbers 
     1.0000   1.0000   1.0000   1.0000   1.0000   1.0000   1.0000   1.0000
    -0.0000  -0.0000  -0.0000  -0.0000

          k = 0.0833 0.1443 0.0741 (  1502 PWs)   bands (ev):

   -14.2047 -14.1739  -2.3981  -2.0105   0.0499   0.0521   0.7208   0.7223
     8.9658  11.2570  13.4520  13.4758

     occupation numbers 
     1.0000   1.0000   1.0000   1.0000   1.0000   1.0000   1.0000   1.0000
    -0.0000  -0.0000  -0.0000  -0.0000

          k = 0.0833 0.1443-0.1483 (  1500 PWs)   bands (ev):

   -14.1894 -14.1894  -2.2106  -2.2106   0.0510   0.0510   0.7216   0.7216
     9.9438   9.9438  13.4677  13.4677

     occupation numbers 
     1.0000   1.0000   1.0000   1.0000   1.0000   1.0000   1.0000   1.0000
    -0.0000  -0.0000  -0.0000  -0.0000

          k = 0.0833 0.2406 0.0000 (  1500 PWs)   bands (ev):

   -13.5625 -13.5213  -1.6981  -1.6570  -1.6495  -1.1701  -0.2738  -0.2694
     9.4601  12.6991  12.8138  13.0099

     occupation numbers 
     1.0000   1.0000   1.0000   1.0000   1.0000   1.0000   1.0000   1.0000
    -0.0000  -0.0000  -0.0000  -0.0000

          k = 0.0833 0.2406 0.0741 (  1503 PWs)   bands (ev):

   -13.5565 -13.5274  -1.6559  -1.6507  -1.6263  -1.2536  -0.2732  -0.2701
     9.8072  12.0161  12.8180  12.9000

     occupation numbers 
     1.0000   1.0000   1.0000   1.0000   1.0000   1.0000   1.0000   1.0000
    -0.0000  -0.0000  -0.0000  -0.0000

          k = 0.0833 0.2406-0.1483 (  1506 PWs)   bands (ev):

   -13.5420 -13.5420  -1.6533  -1.6533  -1.4458  -1.4458  -0.2716  -0.2716
    10.7570  10.7570  12.8526  12.8527

     occupation numbers 
     1.0000   1.0000   1.0000   1.0000   1.0000   1.0000   1.0000   1.0000
    -0.0000  -0.0000  -0.0000  -0.0000

          k = 0.0833 0.3368 0.0000 (  1514 PWs)   bands (ev):

   -12.6006 -12.5626  -3.7245  -3.7114  -1.1580  -1.1520  -0.5703  -0.0790
    10.6307  10.7297  10.7826  13.3089

     occupation numbers 
     1.0000   1.0000   1.0000   1.0000   1.0000   1.0000   1.0000   1.0000
    -0.0000  -0.0000  -0.0000  -0.0000

          k = 0.0833 0.3368 0.0741 (  1506 PWs)   bands (ev):

   -12.5951 -12.5682  -3.7226  -3.7133  -1.1571  -1.1529  -0.5032  -0.1563
    10.6285  10.7487  11.0957  13.1309

     occupation numbers 
     1.0000   1.0000   1.0000   1.0000   1.0000   1.0000   1.0000   1.0000
    -0.0000  -0.0000  -0.0000  -0.0000

          k = 0.0833 0.3368-0.1483 (  1504 PWs)   bands (ev):

   -12.5817 -12.5817  -3.7179  -3.7179  -1.1550  -1.1550  -0.3348  -0.3348
    10.6852  10.6852  12.0047  12.0047

     occupation numbers 
     1.0000   1.0000   1.0000   1.0000   1.0000   1.0000   1.0000   1.0000
    -0.0000  -0.0000  -0.0000  -0.0000

          k = 0.0833 0.4330 0.0000 (  1522 PWs)   bands (ev):

   -11.3441 -11.3103  -5.8409  -5.8225  -1.7915  -1.7847   0.8332   1.2583
     8.3978   8.6291  12.3875  13.0273

     occupation numbers 
     1.0000   1.0000   1.0000   1.0000   1.0000   1.0000   1.0000   1.0000
    -0.0000  -0.0000  -0.0000  -0.0000

          k = 0.0833 0.4330 0.0741 (  1517 PWs)   bands (ev):

   -11.3392 -11.3153  -5.8382  -5.8252  -1.7905  -1.7857   0.8920   1.1923
     8.4268   8.5907  12.6782  13.0330

     occupation numbers 
     1.0000   1.0000   1.0000   1.0000   1.0000   1.0000   1.0000   1.0000
    -0.0000  -0.0000  -0.0000  -0.0000

          k = 0.0833 0.4330-0.1483 (  1514 PWs)   bands (ev):

   -11.3273 -11.3273  -5.8317  -5.8317  -1.7881  -1.7881   1.0386   1.0386
     8.5041   8.5041  13.0189  13.0189

     occupation numbers 
     1.0000   1.0000   1.0000   1.0000   1.0000   1.0000   1.0000   1.0000
    -0.0000  -0.0000  -0.0000  -0.0000

          k = 0.0833 0.5292 0.0000 (  1524 PWs)   bands (ev):

    -9.8696  -9.8426  -7.7738  -7.7525  -2.1192  -2.1120   2.2087   2.4746
     6.6421   6.8810  12.8508  12.9257

     occupation numbers 
     1.0000   1.0000   1.0000   1.0000   1.0000   1.0000   1.0000   1.0000
    -0.0000  -0.0000  -0.0000  -0.0000

          k = 0.0833 0.5292 0.0741 (  1515 PWs)   bands (ev):

    -9.8657  -9.8465  -7.7707  -7.7556  -2.1181  -2.1131   2.2475   2.4356
     6.6695   6.8386  12.8618  12.9148

     occupation numbers 
     1.0000   1.0000   1.0000   1.0000   1.0000   1.0000   1.0000   1.0000
    -0.0000  -0.0000  -0.0000  -0.0000

          k = 0.0833 0.5292-0.1483 (  1524 PWs)   bands (ev):

    -9.8562  -9.8562  -7.7632  -7.7632  -2.1156  -2.1156   2.3415   2.3415
     6.7466   6.7466  12.8883  12.8883

     occupation numbers 
     1.0000   1.0000   1.0000   1.0000   1.0000   1.0000   1.0000   1.0000
    -0.0000  -0.0000  -0.0000  -0.0000

          k = 0.1667 0.2887 0.0000 (  1509 PWs)   bands (ev):

   -12.7603 -12.7217  -2.9832  -2.9772  -1.6288  -1.6244  -0.7518  -0.2529
    10.5220  11.0955  11.1959  13.6815

     occupation numbers 
     1.0000   1.0000   1.0000   1.0000   1.0000   1.0000   1.0000   1.0000
    -0.0000  -0.0000  -0.0000  -0.0000

          k = 0.1667 0.2887 0.0741 (  1516 PWs)   bands (ev):

   -12.7547 -12.7274  -2.9824  -2.9781  -1.6282  -1.6250  -0.6837  -0.3315
    10.8547  11.1101  11.1813  12.9633

     occupation numbers 
     1.0000   1.0000   1.0000   1.0000   1.0000   1.0000   1.0000   1.0000
    -0.0000  -0.0000  -0.0000  -0.0000

          k = 0.1667 0.2887-0.1483 (  1518 PWs)   bands (ev):

   -12.7411 -12.7411  -2.9802  -2.9802  -1.6266  -1.6266  -0.5128  -0.5128
    11.1453  11.1453  11.7642  11.7642

     occupation numbers 
     1.0000   1.0000   1.0000   1.0000   1.0000   1.0000   1.0000   1.0000
    -0.0000  -0.0000  -0.0000  -0.0000

          k = 0.1667 0.3849 0.0000 (  1517 PWs)   bands (ev):

   -11.6558 -11.6209  -4.7069  -4.6943  -2.6829  -2.6747   0.5178   0.9683
     9.1396   9.2831  11.9936  14.9256

     occupation numbers 
     1.0000   1.0000   1.0000   1.0000   1.0000   1.0000   1.0000   1.0000
    -0.0000  -0.0000  -0.0000  -0.0000

          k = 0.1667 0.3849 0.0741 (  1515 PWs)   bands (ev):

   -11.6507 -11.6260  -4.7051  -4.6962  -2.6817  -2.6759   0.5798   0.8979
     9.1594   9.2611  12.3002  14.1625

     occupation numbers 
     1.0000   1.0000   1.0000   1.0000   1.0000   1.0000   1.0000   1.0000
    -0.0000  -0.0000  -0.0000  -0.0000

          k = 0.1667 0.3849-0.1483 (  1524 PWs)   bands (ev):

   -11.6385 -11.6385  -4.7006  -4.7006  -2.6788  -2.6788   0.7347   0.7347
     9.2093   9.2093  13.1239  13.1240

     occupation numbers 
     1.0000   1.0000   1.0000   1.0000   1.0000   1.0000   1.0000   1.0000
    -0.0000  -0.0000  -0.0000  -0.0000

          k = 0.1667 0.4811 0.0000 (  1522 PWs)   bands (ev):

   -10.2844 -10.2543  -6.6113  -6.5924  -3.2589  -3.2485   1.9800   2.3386
     7.2165   7.4103  13.8405  14.7155

     occupation numbers 
     1.0000   1.0000   1.0000   1.0000   1.0000   1.0000   1.0000   1.0000
    -0.0000  -0.0000  -0.0000  -0.0000

          k = 0.1667 0.4811 0.0741 (  1525 PWs)   bands (ev):

   -10.2800 -10.2587  -6.6085  -6.5952  -3.2574  -3.2500   2.0303   2.2837
     7.2420   7.3793  14.0847  14.7224

     occupation numbers 
     1.0000   1.0000   1.0000   1.0000   1.0000   1.0000   1.0000   1.0000
    -0.0000  -0.0000  -0.0000  -0.0000

          k = 0.1667 0.4811-0.1483 (  1520 PWs)   bands (ev):

   -10.2694 -10.2694  -6.6019  -6.6019  -3.2537  -3.2537   2.1548   2.1548
     7.3079   7.3079  14.6247  14.6247

     occupation numbers 
     1.0000   1.0000   1.0000   1.0000   1.0000   1.0000   1.0000   1.0000
    -0.0000  -0.0000  -0.0000  -0.0000

          k = 0.1667 0.5774 0.0000 (  1527 PWs)   bands (ev):

    -9.0518  -9.0376  -8.0313  -8.0207  -3.4437  -3.4328   2.9551   3.1242
     6.1937   6.3243  14.6165  14.7556

     occupation numbers 
     1.0000   1.0000   1.0000   1.0000   1.0000   1.0000   1.0000   1.0000
    -0.0000  -0.0000  -0.0000  -0.0000

          k = 0.1667 0.5774 0.0741 (  1526 PWs)   bands (ev):

    -9.0497  -9.0397  -8.0298  -8.0224  -3.4421  -3.4344   2.9815   3.1013
     6.2060   6.2987  14.6346  14.7322

     occupation numbers 
     1.0000   1.0000   1.0000   1.0000   1.0000   1.0000   1.0000   1.0000
    -0.0000  -0.0000  -0.0000  -0.0000

          k = 0.1667 0.5774-0.1483 (  1532 PWs)   bands (ev):

    -9.0447  -9.0447  -8.0262  -8.0262  -3.4382  -3.4382   3.0431   3.0431
     6.2457   6.2457  14.6804  14.6804

     occupation numbers 
     1.0000   1.0000   1.0000   1.0000   1.0000   1.0000   1.0000   1.0000
    -0.0000  -0.0000  -0.0000  -0.0000

          k = 0.2500 0.4330 0.0000 (  1525 PWs)   bands (ev):

   -10.4315 -10.4007  -5.7391  -5.7300  -4.1566  -4.1495   1.8833   2.2707
     7.5360   7.6723  13.6409  15.3843

     occupation numbers 
     1.0000   1.0000   1.0000   1.0000   1.0000   1.0000   1.0000   1.0000
    -0.0000  -0.0000  -0.0000  -0.0000

          k = 0.2500 0.4330 0.0741 (  1530 PWs)   bands (ev):

   -10.4270 -10.4053  -5.7378  -5.7313  -4.1556  -4.1506   1.9372   2.2108
     7.5558   7.6522  13.8706  15.0828

     occupation numbers 
     1.0000   1.0000   1.0000   1.0000   1.0000   1.0000   1.0000   1.0000
    -0.0000  -0.0000  -0.0000  -0.0000

          k = 0.2500 0.4330-0.1483 (  1534 PWs)   bands (ev):

   -10.4162 -10.4162  -5.7345  -5.7345  -4.1531  -4.1531   2.0711   2.0711
     7.6039   7.6039  14.4484  14.4485

     occupation numbers 
     1.0000   1.0000   1.0000   1.0000   1.0000   1.0000   1.0000   1.0000
    -0.0000  -0.0000  -0.0000  -0.0000

          k = 0.2500 0.5292 0.0000 (  1531 PWs)   bands (ev):

    -9.0140  -8.9897  -7.1558  -7.1401  -4.8641  -4.8523   3.3190   3.5831
     6.0297   6.1601  15.5758  15.6363

     occupation numbers 
     1.0000   1.0000   1.0000   1.0000   1.0000   1.0000   1.0000   1.0000
    -0.0000  -0.0000  -0.0000  -0.0000

          k = 0.2500 0.5292 0.0741 (  1531 PWs)   bands (ev):

    -9.0104  -8.9933  -7.1535  -7.1424  -4.8624  -4.8541   3.3573   3.5442
     6.0468   6.1391  15.4053  15.4977

     occupation numbers 
     1.0000   1.0000   1.0000   1.0000   1.0000   1.0000   1.0000   1.0000
    -0.0000  -0.0000  -0.0000  -0.0000

          k = 0.2500 0.5292-0.1483 (  1544 PWs)   bands (ev):

    -9.0019  -9.0019  -7.1480  -7.1480  -4.8582  -4.8582   3.4504   3.4504
     6.0910   6.0910  15.3409  15.3410

     occupation numbers 
     1.0000   1.0000   1.0000   1.0000   1.0000   1.0000   1.0000   1.0000
    -0.0000  -0.0000  -0.0000  -0.0000

          k = 0.3333 0.5774 0.0000 (  1527 PWs)   bands (ev):

    -7.8041  -7.7918  -7.7917  -7.7799  -5.7446  -5.7446   4.6444   4.7985
     4.7986   4.9611  15.4978  15.4984

     occupation numbers 
     1.0000   1.0000   1.0000   1.0000   1.0000   1.0000   1.0030   0.5094
     0.5083  -0.0020  -0.0000  -0.0000

          k = 0.3333 0.5774 0.0741 (  1530 PWs)   bands (ev):

    -7.8006  -7.7918  -7.7917  -7.7834  -5.7447  -5.7446   4.6888   4.7995
     4.7995   4.9126  15.3296  15.3300

     occupation numbers 
     1.0000   1.0000   1.0000   1.0000   1.0000   1.0000   1.0220   0.4977
     0.4968  -0.0200  -0.0000  -0.0000

          k = 0.3333 0.5774-0.1483 (  1542 PWs)   bands (ev):

    -7.7926  -7.7926  -7.7912  -7.7912  -5.7447  -5.7447   4.7982   4.7982
     4.8008   4.8008  15.1984  15.1984

     occupation numbers 
     1.0000   1.0000   1.0000   1.0000   1.0000   1.0000   0.5130   0.5130
     0.4813   0.4813  -0.0000  -0.0000

          k =-0.0833-0.0481 0.0000 (  1493 PWs)   bands (ev):

   -14.5371 -14.4924  -2.8651  -2.3059   1.0820   1.0851   1.3922   1.3947
     8.1835  11.6850  13.1468  13.1717

     occupation numbers 
     1.0000   1.0000   1.0000   1.0000   1.0000   1.0000   1.0000   1.0000
    -0.0000  -0.0000  -0.0000  -0.0000

          k =-0.0833-0.0481-0.0741 (  1489 PWs)   bands (ev):

   -14.5306 -14.4991  -2.7894  -2.3948   1.0825   1.0847   1.3926   1.3944
     8.5441  10.8627  13.1576  13.1701

     occupation numbers 
     1.0000   1.0000   1.0000   1.0000   1.0000   1.0000   1.0000   1.0000
    -0.0000  -0.0000  -0.0000  -0.0000

          k =-0.0833-0.0481 0.1483 (  1486 PWs)   bands (ev):

   -14.5149 -14.5149  -2.5987  -2.5987   1.0836   1.0836   1.3935   1.3935
     9.5333   9.5333  13.1656  13.1656

     occupation numbers 
     1.0000   1.0000   1.0000   1.0000   1.0000   1.0000   1.0000   1.0000
    -0.0000  -0.0000  -0.0000  -0.0000

          k =-0.1667-0.0962 0.0000 (  1503 PWs)   bands (ev):

   -14.0484 -14.0054  -2.2777  -1.7336  -0.5519  -0.5452   0.6029   0.6066
     8.8213  12.2523  13.0726  13.1269

     occupation numbers 
     1.0000   1.0000   1.0000   1.0000   1.0000   1.0000   1.0000   1.0000
    -0.0000  -0.0000  -0.0000  -0.0000

          k =-0.1667-0.0962-0.0741 (  1496 PWs)   bands (ev):

   -14.0421 -14.0117  -2.2039  -1.8199  -0.5510  -0.5462   0.6035   0.6061
     9.1757  11.4478  13.0982  13.1240

     occupation numbers 
     1.0000   1.0000   1.0000   1.0000   1.0000   1.0000   1.0000   1.0000
    -0.0000  -0.0000  -0.0000  -0.0000

          k =-0.1667-0.0962 0.1483 (  1490 PWs)   bands (ev):

   -14.0270 -14.0270  -2.0182  -2.0182  -0.5486  -0.5486   0.6048   0.6048
    10.1467  10.1467  13.1145  13.1145

     occupation numbers 
     1.0000   1.0000   1.0000   1.0000   1.0000   1.0000   1.0000   1.0000
    -0.0000  -0.0000  -0.0000  -0.0000

          k =-0.2500-0.1443 0.0000 (  1497 PWs)   bands (ev):

   -13.2401 -13.2000  -2.6452  -2.6337  -1.3184  -0.8023  -0.2737  -0.2692
     9.8818  11.9187  12.0380  12.7843

     occupation numbers 
     1.0000   1.0000   1.0000   1.0000   1.0000   1.0000   1.0000   1.0000
    -0.0000  -0.0000  -0.0000  -0.0000

          k =-0.2500-0.1443-0.0741 (  1502 PWs)   bands (ev):

   -13.2343 -13.2059  -2.6436  -2.6354  -1.2482  -0.8838  -0.2730  -0.2699
    10.2186  11.8844  12.0069  12.5406

     occupation numbers 
     1.0000   1.0000   1.0000   1.0000   1.0000   1.0000   1.0000   1.0000
    -0.0000  -0.0000  -0.0000  -0.0000

          k =-0.2500-0.1443 0.1483 (  1508 PWs)   bands (ev):

   -13.2202 -13.2202  -2.6395  -2.6395  -1.0716  -1.0716  -0.2715  -0.2715
    11.1175  11.1175  12.0694  12.0695

     occupation numbers 
     1.0000   1.0000   1.0000   1.0000   1.0000   1.0000   1.0000   1.0000
    -0.0000  -0.0000  -0.0000  -0.0000

          k =-0.3333-0.1925 0.0000 (  1504 PWs)   bands (ev):

   -12.1247 -12.0883  -4.8426  -4.8261  -1.0047  -0.9999  -0.0340   0.4337
     9.5915   9.8072  11.3481  12.4528

     occupation numbers 
     1.0000   1.0000   1.0000   1.0000   1.0000   1.0000   1.0000   1.0000
    -0.0000  -0.0000  -0.0000  -0.0000

          k =-0.3333-0.1925-0.0741 (  1509 PWs)   bands (ev):

   -12.1195 -12.0937  -4.8402  -4.8285  -1.0040  -1.0006   0.0302   0.3605
     9.6140   9.7677  11.6825  12.4526

     occupation numbers 
     1.0000   1.0000   1.0000   1.0000   1.0000   1.0000   1.0000   1.0000
    -0.0000  -0.0000  -0.0000  -0.0000

          k =-0.3333-0.1925 0.1483 (  1502 PWs)   bands (ev):

   -12.1066 -12.1066  -4.8344  -4.8344  -1.0023  -1.0023   0.1908   0.1908
     9.6833   9.6833  12.3699  12.3700

     occupation numbers 
     1.0000   1.0000   1.0000   1.0000   1.0000   1.0000   1.0000   1.0000
    -0.0000  -0.0000  -0.0000  -0.0000

          k =-0.4167-0.2406 0.0000 (  1508 PWs)   bands (ev):

   -10.7335 -10.7019  -6.9360  -6.9148  -1.4762  -1.4711   1.4271   1.7946
     7.4423   7.7145  12.2025  12.2597

     occupation numbers 
     1.0000   1.0000   1.0000   1.0000   1.0000   1.0000   1.0000   1.0000
    -0.0000  -0.0000  -0.0000  -0.0000

          k =-0.4167-0.2406-0.0741 (  1510 PWs)   bands (ev):

   -10.7289 -10.7065  -6.9329  -6.9179  -1.4755  -1.4718   1.4788   1.7385
     7.4754   7.6680  12.2123  12.2531

     occupation numbers 
     1.0000   1.0000   1.0000   1.0000   1.0000   1.0000   1.0000   1.0000
    -0.0000  -0.0000  -0.0000  -0.0000

          k =-0.4167-0.2406 0.1483 (  1500 PWs)   bands (ev):

   -10.7177 -10.7177  -6.9254  -6.9254  -1.4737  -1.4737   1.6064   1.6064
     7.5651   7.5651  12.2340  12.2340

     occupation numbers 
     1.0000   1.0000   1.0000   1.0000   1.0000   1.0000   1.0000   1.0000
    -0.0000  -0.0000  -0.0000  -0.0000

          k = 0.5000 0.2887 0.0000 (  1508 PWs)   bands (ev):

    -9.4727  -9.4578  -8.4258  -8.4138  -1.6381  -1.6329   2.3564   2.5293
     6.3761   6.6140  12.1203  12.1863

     occupation numbers 
     1.0000   1.0000   1.0000   1.0000   1.0000   1.0000   1.0000   1.0000
    -0.0000  -0.0000  -0.0000  -0.0000

          k = 0.5000 0.2887-0.0741 (  1520 PWs)   bands (ev):

    -9.4705  -9.4599  -8.4241  -8.4156  -1.6373  -1.6337   2.3832   2.5056
     6.4009   6.5690  12.1299  12.1765

     occupation numbers 
     1.0000   1.0000   1.0000   1.0000   1.0000   1.0000   1.0000   1.0000
    -0.0000  -0.0000  -0.0000  -0.0000

          k = 0.5000 0.2887 0.1483 (  1520 PWs)   bands (ev):

    -9.4652  -9.4652  -8.4200  -8.4200  -1.6355  -1.6355   2.4460   2.4460
     6.4749   6.4749  12.1532  12.1532

     occupation numbers 
     1.0000   1.0000   1.0000   1.0000   1.0000   1.0000   1.0000   1.0000
    -0.0000  -0.0000  -0.0000  -0.0000

          k = 0.1667 0.0000 0.0000 (  1505 PWs)   bands (ev):

   -14.2110 -14.1675  -2.4726  -1.9234   0.0521   0.0552   0.7177   0.7199
     8.6091  12.0695  13.4240  13.4742

     occupation numbers 
     1.0000   1.0000   1.0000   1.0000   1.0000   1.0000   1.0000   1.0000
    -0.0000  -0.0000  -0.0000  -0.0000

          k = 0.1667 0.0000-0.0741 (  1502 PWs)   bands (ev):

   -14.2046 -14.1739  -2.3982  -2.0105   0.0525   0.0547   0.7180   0.7195
     8.9658  11.2569  13.4477  13.4715

     occupation numbers 
     1.0000   1.0000   1.0000   1.0000   1.0000   1.0000   1.0000   1.0000
    -0.0000  -0.0000  -0.0000  -0.0000

          k = 0.1667 0.0000 0.1483 (  1500 PWs)   bands (ev):

   -14.1894 -14.1894  -2.2107  -2.2107   0.0536   0.0536   0.7188   0.7188
     9.9438   9.9438  13.4634  13.4635

     occupation numbers 
     1.0000   1.0000   1.0000   1.0000   1.0000   1.0000   1.0000   1.0000
    -0.0000  -0.0000  -0.0000  -0.0000

          k =-0.1667-0.1925 0.0000 (  1500 PWs)   bands (ev):

   -13.5625 -13.5212  -1.6982  -1.6558  -1.6483  -1.1702  -0.2751  -0.2708
     9.4601  12.6986  12.8141  13.0108

     occupation numbers 
     1.0000   1.0000   1.0000   1.0000   1.0000   1.0000   1.0000   1.0000
    -0.0000  -0.0000  -0.0000  -0.0000

          k = 0.2500-0.0481 0.0000 (  1500 PWs)   bands (ev):

   -13.5625 -13.5212  -1.6982  -1.6547  -1.6472  -1.1702  -0.2763  -0.2720
     9.4601  12.6989  12.8147  13.0108

     occupation numbers 
     1.0000   1.0000   1.0000   1.0000   1.0000   1.0000   1.0000   1.0000
    -0.0000  -0.0000  -0.0000  -0.0000

          k =-0.1667-0.1925-0.0741 (  1503 PWs)   bands (ev):

   -13.5565 -13.5273  -1.6547  -1.6495  -1.6263  -1.2537  -0.2745  -0.2714
     9.8072  12.0159  12.8184  12.9004

     occupation numbers 
     1.0000   1.0000   1.0000   1.0000   1.0000   1.0000   1.0000   1.0000
    -0.0000  -0.0000  -0.0000  -0.0000

          k = 0.2500-0.0481-0.0741 (  1503 PWs)   bands (ev):

   -13.5565 -13.5273  -1.6536  -1.6484  -1.6264  -1.2538  -0.2757  -0.2726
     9.8072  12.0158  12.8189  12.9008

     occupation numbers 
     1.0000   1.0000   1.0000   1.0000   1.0000   1.0000   1.0000   1.0000
    -0.0000  -0.0000  -0.0000  -0.0000

          k =-0.1667-0.1925 0.1483 (  1506 PWs)   bands (ev):

   -13.5420 -13.5420  -1.6521  -1.6521  -1.4459  -1.4459  -0.2729  -0.2729
    10.7569  10.7569  12.8530  12.8530

     occupation numbers 
     1.0000   1.0000   1.0000   1.0000   1.0000   1.0000   1.0000   1.0000
    -0.0000  -0.0000  -0.0000  -0.0000

          k = 0.2500-0.0481 0.1483 (  1506 PWs)   bands (ev):

   -13.5420 -13.5420  -1.6510  -1.6510  -1.4460  -1.4460  -0.2742  -0.2742
    10.7569  10.7569  12.8535  12.8535

     occupation numbers 
     1.0000   1.0000   1.0000   1.0000   1.0000   1.0000   1.0000   1.0000
    -0.0000  -0.0000  -0.0000  -0.0000

          k =-0.2500-0.2406 0.0000 (  1514 PWs)   bands (ev):

   -12.6006 -12.5625  -3.7233  -3.7102  -1.1595  -1.1535  -0.5705  -0.0792
    10.6315  10.7297  10.7832  13.3079

     occupation numbers 
     1.0000   1.0000   1.0000   1.0000   1.0000   1.0000   1.0000   1.0000
    -0.0000  -0.0000  -0.0000  -0.0000

          k = 0.3333-0.0962 0.0000 (  1514 PWs)   bands (ev):

   -12.6006 -12.5625  -3.7229  -3.7098  -1.1599  -1.1539  -0.5706  -0.0793
    10.6319  10.7297  10.7837  13.3073

     occupation numbers 
     1.0000   1.0000   1.0000   1.0000   1.0000   1.0000   1.0000   1.0000
    -0.0000  -0.0000  -0.0000  -0.0000

          k =-0.2500-0.2406-0.0741 (  1506 PWs)   bands (ev):

   -12.5951 -12.5682  -3.7214  -3.7121  -1.1586  -1.1544  -0.5033  -0.1565
    10.6291  10.7493  11.0959  13.1314

     occupation numbers 
     1.0000   1.0000   1.0000   1.0000   1.0000   1.0000   1.0000   1.0000
    -0.0000  -0.0000  -0.0000  -0.0000

          k = 0.3333-0.0962-0.0741 (  1506 PWs)   bands (ev):

   -12.5950 -12.5681  -3.7210  -3.7117  -1.1591  -1.1548  -0.5034  -0.1566
    10.6296  10.7498  11.0959  13.1312

     occupation numbers 
     1.0000   1.0000   1.0000   1.0000   1.0000   1.0000   1.0000   1.0000
    -0.0000  -0.0000  -0.0000  -0.0000

          k =-0.2500-0.2406 0.1483 (  1504 PWs)   bands (ev):

   -12.5817 -12.5817  -3.7168  -3.7168  -1.1565  -1.1565  -0.3349  -0.3349
    10.6858  10.6858  12.0049  12.0049

     occupation numbers 
     1.0000   1.0000   1.0000   1.0000   1.0000   1.0000   1.0000   1.0000
    -0.0000  -0.0000  -0.0000  -0.0000

          k = 0.3333-0.0962 0.1483 (  1504 PWs)   bands (ev):

   -12.5816 -12.5816  -3.7164  -3.7164  -1.1569  -1.1569  -0.3350  -0.3350
    10.6863  10.6863  12.0047  12.0047

     occupation numbers 
     1.0000   1.0000   1.0000   1.0000   1.0000   1.0000   1.0000   1.0000
    -0.0000  -0.0000  -0.0000  -0.0000

          k =-0.3333-0.2887 0.0000 (  1522 PWs)   bands (ev):

   -11.3441 -11.3103  -5.8399  -5.8215  -1.7928  -1.7860   0.8327   1.2578
     8.3990   8.6303  12.3876  13.0266

     occupation numbers 
     1.0000   1.0000   1.0000   1.0000   1.0000   1.0000   1.0000   1.0000
    -0.0000  -0.0000  -0.0000  -0.0000

          k = 0.4167-0.1443 0.0000 (  1522 PWs)   bands (ev):

   -11.3440 -11.3103  -5.8398  -5.8214  -1.7930  -1.7862   0.8326   1.2577
     8.3993   8.6306  12.3875  13.0263

     occupation numbers 
     1.0000   1.0000   1.0000   1.0000   1.0000   1.0000   1.0000   1.0000
    -0.0000  -0.0000  -0.0000  -0.0000

          k =-0.3333-0.2887-0.0741 (  1517 PWs)   bands (ev):

   -11.3392 -11.3153  -5.8372  -5.8242  -1.7918  -1.7870   0.8915   1.1918
     8.4280   8.5918  12.6782  13.0324

     occupation numbers 
     1.0000   1.0000   1.0000   1.0000   1.0000   1.0000   1.0000   1.0000
    -0.0000  -0.0000  -0.0000  -0.0000

          k = 0.4167-0.1443-0.0741 (  1517 PWs)   bands (ev):

   -11.3391 -11.3152  -5.8371  -5.8241  -1.7920  -1.7872   0.8914   1.1917
     8.4284   8.5922  12.6780  13.0320

     occupation numbers 
     1.0000   1.0000   1.0000   1.0000   1.0000   1.0000   1.0000   1.0000
    -0.0000  -0.0000  -0.0000  -0.0000

          k =-0.3333-0.2887 0.1483 (  1514 PWs)   bands (ev):

   -11.3273 -11.3273  -5.8307  -5.8307  -1.7895  -1.7895   1.0381   1.0381
     8.5053   8.5053  13.0184  13.0184

     occupation numbers 
     1.0000   1.0000   1.0000   1.0000   1.0000   1.0000   1.0000   1.0000
    -0.0000  -0.0000  -0.0000  -0.0000

          k = 0.4167-0.1443 0.1483 (  1514 PWs)   bands (ev):

   -11.3272 -11.3272  -5.8306  -5.8306  -1.7896  -1.7896   1.0380   1.0380
     8.5057   8.5057  13.0180  13.0180

     occupation numbers 
     1.0000   1.0000   1.0000   1.0000   1.0000   1.0000   1.0000   1.0000
    -0.0000  -0.0000  -0.0000  -0.0000

          k =-0.4167-0.3368 0.0000 (  1524 PWs)   bands (ev):

    -9.8699  -9.8428  -7.7726  -7.7513  -2.1205  -2.1134   2.2076   2.4734
     6.6441   6.8830  12.8502  12.9251

     occupation numbers 
     1.0000   1.0000   1.0000   1.0000   1.0000   1.0000   1.0000   1.0000
    -0.0000  -0.0000  -0.0000  -0.0000

          k = 0.5000-0.1925 0.0000 (  1524 PWs)   bands (ev):

    -9.8699  -9.8428  -7.7726  -7.7513  -2.1206  -2.1134   2.2074   2.4733
     6.6442   6.8832  12.8501  12.9250

     occupation numbers 
     1.0000   1.0000   1.0000   1.0000   1.0000   1.0000   1.0000   1.0000
    -0.0000  -0.0000  -0.0000  -0.0000

          k =-0.4167-0.3368-0.0741 (  1515 PWs)   bands (ev):

    -9.8659  -9.8467  -7.7695  -7.7544  -2.1195  -2.1144   2.2464   2.4344
     6.6715   6.8406  12.8612  12.9142

     occupation numbers 
     1.0000   1.0000   1.0000   1.0000   1.0000   1.0000   1.0000   1.0000
    -0.0000  -0.0000  -0.0000  -0.0000

          k = 0.5000-0.1925-0.0741 (  1515 PWs)   bands (ev):

    -9.8659  -9.8467  -7.7695  -7.7544  -2.1195  -2.1145   2.2463   2.4343
     6.6717   6.8408  12.8611  12.9141

     occupation numbers 
     1.0000   1.0000   1.0000   1.0000   1.0000   1.0000   1.0000   1.0000
    -0.0000  -0.0000  -0.0000  -0.0000

          k =-0.4167-0.3368 0.1483 (  1524 PWs)   bands (ev):

    -9.8564  -9.8564  -7.7620  -7.7620  -2.1169  -2.1169   2.3403   2.3403
     6.7486   6.7486  12.8877  12.8877

     occupation numbers 
     1.0000   1.0000   1.0000   1.0000   1.0000   1.0000   1.0000   1.0000
    -0.0000  -0.0000  -0.0000  -0.0000

          k = 0.5000-0.1925 0.1483 (  1524 PWs)   bands (ev):

    -9.8564  -9.8564  -7.7620  -7.7620  -2.1170  -2.1170   2.3402   2.3402
     6.7488   6.7488  12.8876  12.8876

     occupation numbers 
     1.0000   1.0000   1.0000   1.0000   1.0000   1.0000   1.0000   1.0000
    -0.0000  -0.0000  -0.0000  -0.0000

          k = 0.3333 0.0000 0.0000 (  1509 PWs)   bands (ev):

   -12.7602 -12.7217  -2.9813  -2.9753  -1.6309  -1.6265  -0.7520  -0.2532
    10.5219  11.0965  11.1969  13.6812

     occupation numbers 
     1.0000   1.0000   1.0000   1.0000   1.0000   1.0000   1.0000   1.0000
    -0.0000  -0.0000  -0.0000  -0.0000

          k = 0.3333 0.0000-0.0741 (  1516 PWs)   bands (ev):

   -12.7546 -12.7274  -2.9804  -2.9762  -1.6303  -1.6272  -0.6839  -0.3317
    10.8547  11.1110  11.1823  12.9631

     occupation numbers 
     1.0000   1.0000   1.0000   1.0000   1.0000   1.0000   1.0000   1.0000
    -0.0000  -0.0000  -0.0000  -0.0000

          k = 0.3333 0.0000 0.1483 (  1518 PWs)   bands (ev):

   -12.7411 -12.7411  -2.9783  -2.9783  -1.6287  -1.6287  -0.5130  -0.5130
    11.1462  11.1462  11.7641  11.7641

     occupation numbers 
     1.0000   1.0000   1.0000   1.0000   1.0000   1.0000   1.0000   1.0000
    -0.0000  -0.0000  -0.0000  -0.0000

          k =-0.2500-0.3368 0.0000 (  1517 PWs)   bands (ev):

   -11.6558 -11.6209  -4.7061  -4.6935  -2.6838  -2.6756   0.5177   0.9681
     9.1401   9.2834  11.9936  14.9241

     occupation numbers 
     1.0000   1.0000   1.0000   1.0000   1.0000   1.0000   1.0000   1.0000
    -0.0000  -0.0000  -0.0000  -0.0000

          k = 0.4167-0.0481 0.0000 (  1517 PWs)   bands (ev):

   -11.6557 -11.6209  -4.7053  -4.6927  -2.6848  -2.6766   0.5174   0.9679
     9.1410   9.2844  11.9937  14.9279

     occupation numbers 
     1.0000   1.0000   1.0000   1.0000   1.0000   1.0000   1.0000   1.0000
    -0.0000  -0.0000  -0.0000  -0.0000

          k =-0.2500-0.3368-0.0741 (  1515 PWs)   bands (ev):

   -11.6507 -11.6260  -4.7043  -4.6954  -2.6826  -2.6768   0.5796   0.8978
     9.1599   9.2615  12.3002  14.1625

     occupation numbers 
     1.0000   1.0000   1.0000   1.0000   1.0000   1.0000   1.0000   1.0000
    -0.0000  -0.0000  -0.0000  -0.0000

          k = 0.4167-0.0481-0.0741 (  1515 PWs)   bands (ev):

   -11.6507 -11.6260  -4.7035  -4.6946  -2.6836  -2.6778   0.5794   0.8975
     9.1608   9.2624  12.3002  14.1620

     occupation numbers 
     1.0000   1.0000   1.0000   1.0000   1.0000   1.0000   1.0000   1.0000
    -0.0000  -0.0000  -0.0000  -0.0000

          k =-0.2500-0.3368 0.1483 (  1524 PWs)   bands (ev):

   -11.6385 -11.6385  -4.6998  -4.6998  -2.6797  -2.6797   0.7345   0.7345
     9.2097   9.2097  13.1240  13.1240

     occupation numbers 
     1.0000   1.0000   1.0000   1.0000   1.0000   1.0000   1.0000   1.0000
    -0.0000  -0.0000  -0.0000  -0.0000

          k = 0.4167-0.0481 0.1483 (  1524 PWs)   bands (ev):

   -11.6384 -11.6384  -4.6990  -4.6990  -2.6807  -2.6807   0.7342   0.7342
     9.2106   9.2106  13.1238  13.1238

     occupation numbers 
     1.0000   1.0000   1.0000   1.0000   1.0000   1.0000   1.0000   1.0000
    -0.0000  -0.0000  -0.0000  -0.0000

          k =-0.3333-0.3849 0.0000 (  1522 PWs)   bands (ev):

   -10.2844 -10.2544  -6.6103  -6.5915  -3.2600  -3.2496   1.9794   2.3379
     7.2177   7.4114  13.8406  14.7150

     occupation numbers 
     1.0000   1.0000   1.0000   1.0000   1.0000   1.0000   1.0000   1.0000
    -0.0000  -0.0000  -0.0000  -0.0000

          k = 0.5000-0.0962 0.0000 (  1522 PWs)   bands (ev):

   -10.2844 -10.2543  -6.6101  -6.5912  -3.2603  -3.2499   1.9791   2.3376
     7.2183   7.4120  13.8405  14.7145

     occupation numbers 
     1.0000   1.0000   1.0000   1.0000   1.0000   1.0000   1.0000   1.0000
    -0.0000  -0.0000  -0.0000  -0.0000

          k =-0.3333-0.3849-0.0741 (  1525 PWs)   bands (ev):

   -10.2801 -10.2588  -6.6076  -6.5942  -3.2585  -3.2511   2.0298   2.2831
     7.2432   7.3804  14.0848  14.7217

     occupation numbers 
     1.0000   1.0000   1.0000   1.0000   1.0000   1.0000   1.0000   1.0000
    -0.0000  -0.0000  -0.0000  -0.0000

          k = 0.5000-0.0962-0.0741 (  1525 PWs)   bands (ev):

   -10.2800 -10.2587  -6.6073  -6.5940  -3.2588  -3.2514   2.0295   2.2828
     7.2438   7.3810  14.0847  14.7213

     occupation numbers 
     1.0000   1.0000   1.0000   1.0000   1.0000   1.0000   1.0000   1.0000
    -0.0000  -0.0000  -0.0000  -0.0000

          k =-0.3333-0.3849 0.1483 (  1520 PWs)   bands (ev):

   -10.2695 -10.2695  -6.6009  -6.6009  -3.2548  -3.2548   2.1542   2.1542
     7.3091   7.3091  14.6246  14.6247

     occupation numbers 
     1.0000   1.0000   1.0000   1.0000   1.0000   1.0000   1.0000   1.0000
    -0.0000  -0.0000  -0.0000  -0.0000

          k = 0.5000-0.0962 0.1483 (  1520 PWs)   bands (ev):

   -10.2694 -10.2694  -6.6007  -6.6007  -3.2551  -3.2551   2.1539   2.1539
     7.3097   7.3097  14.6238  14.6242

     occupation numbers 
     1.0000   1.0000   1.0000   1.0000   1.0000   1.0000   1.0000   1.0000
    -0.0000  -0.0000  -0.0000  -0.0000

          k =-0.4167-0.4330 0.0000 (  1527 PWs)   bands (ev):

    -9.0527  -9.0385  -8.0295  -8.0189  -3.4449  -3.4340   2.9536   3.1228
     6.1959   6.3266  14.6159  14.7549

     occupation numbers 
     1.0000   1.0000   1.0000   1.0000   1.0000   1.0000   1.0000   1.0000
    -0.0000  -0.0000  -0.0000  -0.0000

          k =-0.4167-0.4330-0.0741 (  1526 PWs)   bands (ev):

    -9.0505  -9.0405  -8.0280  -8.0206  -3.4433  -3.4356   2.9800   3.0999
     6.2082   6.3010  14.6339  14.7315

     occupation numbers 
     1.0000   1.0000   1.0000   1.0000   1.0000   1.0000   1.0000   1.0000
    -0.0000  -0.0000  -0.0000  -0.0000

          k =-0.4167-0.4330 0.1483 (  1532 PWs)   bands (ev):

    -9.0455  -9.0455  -8.0244  -8.0244  -3.4395  -3.4395   3.0417   3.0417
     6.2479   6.2479  14.6797  14.6797

     occupation numbers 
     1.0000   1.0000   1.0000   1.0000   1.0000   1.0000   1.0000   1.0000
    -0.0000  -0.0000  -0.0000  -0.0000

          k = 0.5000-0.0000 0.0000 (  1525 PWs)   bands (ev):

   -10.4315 -10.4007  -5.7377  -5.7286  -4.1581  -4.1511   1.8828   2.2700
     7.5373   7.6736  13.6409  15.3833

     occupation numbers 
     1.0000   1.0000   1.0000   1.0000   1.0000   1.0000   1.0000   1.0000
    -0.0000  -0.0000  -0.0000  -0.0000

          k = 0.5000-0.0000-0.0741 (  1530 PWs)   bands (ev):

   -10.4270 -10.4053  -5.7364  -5.7299  -4.1571  -4.1521   1.9366   2.2102
     7.5571   7.6535  13.8705  15.0821

     occupation numbers 
     1.0000   1.0000   1.0000   1.0000   1.0000   1.0000   1.0000   1.0000
    -0.0000  -0.0000  -0.0000  -0.0000

          k = 0.5000-0.0000 0.1483 (  1534 PWs)   bands (ev):

   -10.4162 -10.4162  -5.7331  -5.7331  -4.1547  -4.1547   2.0705   2.0705
     7.6052   7.6052  14.4481  14.4481

     occupation numbers 
     1.0000   1.0000   1.0000   1.0000   1.0000   1.0000   1.0000   1.0000
    -0.0000  -0.0000  -0.0000  -0.0000

          k =-0.3333-0.4811 0.0000 (  1531 PWs)   bands (ev):

    -9.0142  -8.9899  -7.1548  -7.1391  -4.8649  -4.8532   3.3183   3.5824
     6.0309   6.1610  15.5759  15.6360

     occupation numbers 
     1.0000   1.0000   1.0000   1.0000   1.0000   1.0000   1.0000   1.0000
    -0.0000  -0.0000  -0.0000  -0.0000

          k = 0.5833-0.0481 0.0000 (  1531 PWs)   bands (ev):

    -9.0143  -8.9900  -7.1543  -7.1386  -4.8654  -4.8536   3.3178   3.5818
     6.0316   6.1618  15.5758  15.6352

     occupation numbers 
     1.0000   1.0000   1.0000   1.0000   1.0000   1.0000   1.0000   1.0000
    -0.0000  -0.0000  -0.0000  -0.0000

          k =-0.3333-0.4811-0.0741 (  1531 PWs)   bands (ev):

    -9.0106  -8.9935  -7.1525  -7.1414  -4.8632  -4.8549   3.3566   3.5435
     6.0480   6.1400  15.4052  15.4975

     occupation numbers 
     1.0000   1.0000   1.0000   1.0000   1.0000   1.0000   1.0000   1.0000
    -0.0000  -0.0000  -0.0000  -0.0000

          k = 0.5833-0.0481-0.0741 (  1531 PWs)   bands (ev):

    -9.0107  -8.9936  -7.1520  -7.1410  -4.8637  -4.8554   3.3561   3.5429
     6.0487   6.1409  15.4050  15.4969

     occupation numbers 
     1.0000   1.0000   1.0000   1.0000   1.0000   1.0000   1.0000   1.0000
    -0.0000  -0.0000  -0.0000  -0.0000

          k =-0.3333-0.4811 0.1483 (  1544 PWs)   bands (ev):

    -9.0021  -9.0021  -7.1470  -7.1470  -4.8591  -4.8591   3.4497   3.4497
     6.0920   6.0920  15.3407  15.3407

     occupation numbers 
     1.0000   1.0000   1.0000   1.0000   1.0000   1.0000   1.0000   1.0000
    -0.0000  -0.0000  -0.0000  -0.0000

          k = 0.5833-0.0481 0.1483 (  1544 PWs)   bands (ev):

    -9.0022  -9.0022  -7.1465  -7.1465  -4.8595  -4.8595   3.4492   3.4492
     6.0928   6.0928  15.3403  15.3404

     occupation numbers 
     1.0000   1.0000   1.0000   1.0000   1.0000   1.0000   1.0000   1.0000
    -0.0000  -0.0000  -0.0000  -0.0000

     the Fermi energy is     4.7993 ev

!    total energy              =     -49.71360069 Ry
     estimated scf accuracy    <          2.8E-10 Ry
     smearing contrib. (-TS)   =      -0.00004275 Ry
     internal energy E=F+TS    =     -49.71355795 Ry

     The total energy is F=E-TS. E is the sum of the following terms:
     one-electron contribution =     -29.91155279 Ry
     hartree contribution      =      21.73906034 Ry
     xc contribution           =     -18.53776297 Ry
     ewald contribution        =     -23.00330253 Ry

     convergence has been achieved in   7 iterations

     Forces acting on atoms (cartesian axes, Ry/au):

     atom    1 type  1   force =     0.00000000   -0.00021881    0.00000000
     atom    2 type  1   force =     0.00000000    0.00021881    0.00000000
     atom    3 type  1   force =     0.00000000    0.00021949    0.00000000
     atom    4 type  1   force =     0.00000000   -0.00021949    0.00000000
     The non-local contrib.  to forces
     atom    1 type  1   force =     0.00000000   -0.00024411    0.00000000
     atom    2 type  1   force =    -0.00000000    0.00024411    0.00000000
     atom    3 type  1   force =     0.00000000    0.00024435    0.00000000
     atom    4 type  1   force =     0.00000000   -0.00024435    0.00000000
     The ionic contribution  to forces
     atom    1 type  1   force =    -0.00000000   -0.00098176   -0.00000000
     atom    2 type  1   force =    -0.00000000    0.00098176    0.00000000
     atom    3 type  1   force =    -0.00000000    0.00098202   -0.00000000
     atom    4 type  1   force =     0.00000000   -0.00098202    0.00000000
     The local contribution  to forces
     atom    1 type  1   force =     0.00000000    0.00099856    0.00000000
     atom    2 type  1   force =     0.00000000   -0.00099856    0.00000000
     atom    3 type  1   force =    -0.00000000   -0.00099908    0.00000000
     atom    4 type  1   force =    -0.00000000    0.00099908    0.00000000
     The core correction contribution to forces
     atom    1 type  1   force =     0.00000000    0.00000856    0.00000000
     atom    2 type  1   force =    -0.00000000   -0.00000856   -0.00000000
     atom    3 type  1   force =     0.00000000   -0.00000782   -0.00000000
     atom    4 type  1   force =     0.00000000    0.00000782   -0.00000000
     The Hubbard contrib.    to forces
     atom    1 type  1   force =     0.00000000    0.00000000    0.00000000
     atom    2 type  1   force =     0.00000000    0.00000000    0.00000000
     atom    3 type  1   force =     0.00000000    0.00000000    0.00000000
     atom    4 type  1   force =     0.00000000    0.00000000    0.00000000
     The SCF correction term to forces
     atom    1 type  1   force =    -0.00000000   -0.00000007    0.00000000
     atom    2 type  1   force =    -0.00000000    0.00000007   -0.00000000
     atom    3 type  1   force =    -0.00000000    0.00000003   -0.00000000
     atom    4 type  1   force =     0.00000000   -0.00000003    0.00000000

     Total force =     0.000438     Total SCF correction =     0.000000


     Computing stress (Cartesian axis) and pressure

          total   stress  (Ry/bohr**3)                   (kbar)     P=      -12.18
  -0.00012245   0.00000000   0.00000000          -18.01        0.00        0.00
  -0.00000000  -0.00012275   0.00000000           -0.00      -18.06        0.00
   0.00000000   0.00000000  -0.00000320            0.00        0.00       -0.47

     kinetic stress (kbar)   9267.11      0.00      0.00
                                0.00   9266.22      0.00
                                0.00      0.00  10527.82

     local   stress (kbar) -26773.82     -0.00     -0.00
                               -0.00 -26778.34     -0.00
                               -0.00     -0.00  27091.14

     nonloc. stress (kbar)   1801.60      0.00      0.00
                                0.00   1801.75      0.00
                                0.00      0.00   1655.19

     hartree stress (kbar)   9939.13     -0.00      0.00
                               -0.00   9939.79      0.00
                                0.00      0.00  -9111.73

     exc-cor stress (kbar)   -164.90      0.00      0.00
                                0.00   -164.87      0.00
                                0.00      0.00   -269.53

     corecor stress (kbar)  -2235.97     -0.00     -0.00
                               -0.00  -2235.99      0.00
                               -0.00      0.00  -2197.77

     ewald   stress (kbar)   8148.85     -0.00     -0.00
                               -0.00   8153.39      0.00
                               -0.00      0.00 -27695.59

     hubbard stress (kbar)      0.00      0.00      0.00
                                0.00      0.00      0.00
                                0.00      0.00      0.00

     DFT-D   stress (kbar)      0.00      0.00      0.00
                                0.00      0.00      0.00
                                0.00      0.00      0.00

     XDM     stress (kbar)      0.00      0.00      0.00
                                0.00      0.00      0.00
                                0.00      0.00      0.00

     dft-nl  stress (kbar)      0.00      0.00      0.00
                                0.00      0.00      0.00
                                0.00      0.00      0.00

     TS-vdW  stress (kbar)      0.00      0.00      0.00
                                0.00      0.00      0.00
                                0.00      0.00      0.00



     Writing output data file ./tmp/C.save/

     init_run     :      4.15s CPU      4.37s WALL (       1 calls)
     electrons    :     53.86s CPU     55.32s WALL (       1 calls)
     forces       :      1.28s CPU      1.39s WALL (       1 calls)
     stress       :      4.09s CPU      4.41s WALL (       1 calls)

     Called by init_run:
     wfcinit      :      3.04s CPU      3.18s WALL (       1 calls)
     wfcinit:atom :      0.10s CPU      0.10s WALL (     129 calls)
     wfcinit:wfcr :      2.36s CPU      2.47s WALL (     129 calls)
     potinit      :      0.28s CPU      0.29s WALL (       1 calls)
     hinit0       :      0.68s CPU      0.72s WALL (       1 calls)

     Called by electrons:
     c_bands      :     44.29s CPU     45.49s WALL (       7 calls)
     sum_band     :      7.98s CPU      8.22s WALL (       7 calls)
     v_of_rho     :      1.29s CPU      1.31s WALL (       8 calls)
     v_h          :      0.08s CPU      0.08s WALL (       8 calls)
     v_xc         :      1.47s CPU      1.51s WALL (      10 calls)
     newd         :      0.34s CPU      0.36s WALL (       8 calls)
     mix_rho      :      0.11s CPU      0.11s WALL (       7 calls)

     Called by c_bands:
     init_us_2    :      1.99s CPU      2.08s WALL (    2193 calls)
     cegterg      :     41.67s CPU     42.78s WALL (     903 calls)

     Called by sum_band:
     sum_band:wei :      0.01s CPU      0.01s WALL (       7 calls)
     sum_band:loo :      7.37s CPU      7.58s WALL (       7 calls)
     sum_band:buf :      0.08s CPU      0.08s WALL (     903 calls)
     sum_band:ini :      0.82s CPU      0.85s WALL (     903 calls)
     sum_band:cal :      0.64s CPU      0.66s WALL (     903 calls)
     sum_band:bec :      0.02s CPU      0.03s WALL (     903 calls)
     addusdens    :      0.31s CPU      0.33s WALL (       7 calls)
     addusd:skk   :      0.01s CPU      0.01s WALL (       7 calls)
     addusd:dgemm :      0.07s CPU      0.08s WALL (       7 calls)
     addusd:qvan2 :      0.14s CPU      0.14s WALL (       7 calls)

     Called by *egterg:
     cdiaghg      :      1.57s CPU      1.61s WALL (    3932 calls)
     cegterg:over :      1.96s CPU      2.01s WALL (    3029 calls)
     cegterg:upda :      1.33s CPU      1.37s WALL (    3029 calls)
     cegterg:last :      2.18s CPU      2.23s WALL (    2000 calls)
     h_psi        :     33.30s CPU     34.28s WALL (    4061 calls)
     s_psi        :      1.82s CPU      1.87s WALL (    4061 calls)
     g_psi        :      0.45s CPU      0.47s WALL (    3029 calls)

     Called by h_psi:
     h_psi:calbec :      2.16s CPU      2.22s WALL (    4061 calls)
     vloc_psi     :     28.68s CPU     29.54s WALL (    4061 calls)
     add_vuspsi   :      2.02s CPU      2.07s WALL (    4061 calls)

     General routines
     calbec       :      3.25s CPU      3.38s WALL (    5609 calls)
     fft          :      0.83s CPU      0.85s WALL (     127 calls)
     ffts         :      0.02s CPU      0.02s WALL (      15 calls)
     fftw         :     27.14s CPU     28.00s WALL (   73742 calls)
     interpolate  :      0.07s CPU      0.07s WALL (       8 calls)

     Parallel routines

     PWSCF        :   1m 3.61s CPU   1m 5.89s WALL


   This run was terminated on:  18: 3:50  23May2022            

=------------------------------------------------------------------------------=
   JOB DONE.
=------------------------------------------------------------------------------=
