
     Program PWSCF v.6.7MaX starts on 23May2022 at 17:57:50 

     This program is part of the open-source Quantum ESPRESSO suite
     for quantum simulation of materials; please cite
         "P. Giannozzi et al., J. Phys.:Condens. Matter 21 395502 (2009);
         "P. Giannozzi et al., J. Phys.:Condens. Matter 29 465901 (2017);
          URL http://www.quantum-espresso.org", 
     in publications or presentations arising from this work. More details at
     http://www.quantum-espresso.org/quote

     Parallel version (MPI), running on     1 processors

     MPI processes distributed on     1 nodes
     Waiting for input...
     Reading input from standard input

     Current dimensions of program PWSCF are:
     Max number of different atomic species (ntypx) = 10
     Max number of k-points (npk) =  40000
     Max angular momentum in pseudopotentials (lmaxx) =  3

     Subspace diagonalization in iterative solution of the eigenvalue problem:
     a serial algorithm will be used


     G-vector sticks info
     --------------------
     sticks:   dense  smooth     PW     G-vecs:    dense   smooth      PW
     Sum         547     265     85                34301    12031    2223



     bravais-lattice index     =            4
     lattice parameter (alat)  =       4.6676  a.u.
     unit-cell volume          =     297.0066 (a.u.)^3
     number of atoms/cell      =            4
     number of atomic types    =            1
     number of electrons       =        16.00
     number of Kohn-Sham states=           12
     kinetic-energy cutoff     =      45.0000  Ry
     charge density cutoff     =     360.0000  Ry
     scf convergence threshold =      1.0E-09
     mixing beta               =       0.7000
     number of iterations used =            8  plain     mixing
     Exchange-correlation= PBE
                           (   1   4   3   4   0   0   0)

     celldm(1)=   4.667624  celldm(2)=   1.000000  celldm(3)=   3.372470
     celldm(4)=   0.000000  celldm(5)=   0.000000  celldm(6)=   0.000000

     crystal axes: (cart. coord. in units of alat)
               a(1) = (   1.000000   0.000000   0.000000 )  
               a(2) = (  -0.500000   0.866025   0.000000 )  
               a(3) = (   0.000000   0.000000   3.372470 )  

     reciprocal axes: (cart. coord. in units 2 pi/alat)
               b(1) = (  1.000000  0.577350 -0.000000 )  
               b(2) = (  0.000000  1.154701  0.000000 )  
               b(3) = (  0.000000 -0.000000  0.296519 )  


     PseudoPot. # 1 for C  read from file:
     /home/max/Desktop/graphite_DFT/Pseudo/C.pbe-n-rrkjus_psl.1.0.0.UPF
     MD5 check sum: 1fdd950c42eb37d8afe3dd2f8d12311e
     Pseudo is Ultrasoft + core correction, Zval =  4.0
     Generated using &quot;atomic&quot; code by A. Dal Corso  v.6.3MaX
     Using radial grid of 1073 points,  4 beta functions with: 
                l(1) =   0
                l(2) =   0
                l(3) =   1
                l(4) =   1
     Q(r) pseudized with 0 coefficients 


     atomic species   valence    mass     pseudopotential
        C              4.00    12.01100     C ( 1.00)

      8 Sym. Ops., with inversion, found ( 4 have fractional translation)


                                    s                        frac. trans.

      isym =  1     identity                                     

 cryst.   s( 1) = (     1          0          0      )
                  (     0          1          0      )
                  (     0          0          1      )

 cart.    s( 1) = (  1.0000000  0.0000000  0.0000000 )
                  (  0.0000000  1.0000000  0.0000000 )
                  (  0.0000000  0.0000000  1.0000000 )


      isym =  2     180 deg rotation - cart. axis [0,0,1]        

 cryst.   s( 2) = (    -1          0          0      )    f =(  0.0000000 )
                  (     0         -1          0      )       (  0.0000000 )
                  (     0          0          1      )       ( -0.5000000 )

 cart.    s( 2) = ( -1.0000000  0.0000000  0.0000000 )    f =(  0.0000000 )
                  (  0.0000000 -1.0000000  0.0000000 )       (  0.0000000 )
                  (  0.0000000  0.0000000  1.0000000 )       ( -1.6862348 )


      isym =  3     180 deg rotation - cart. axis [0,1,0]        

 cryst.   s( 3) = (    -1          0          0      )    f =(  0.0000000 )
                  (     1          1          0      )       (  0.0000000 )
                  (     0          0         -1      )       (  0.5000000 )

 cart.    s( 3) = ( -1.0000000  0.0000000  0.0000000 )    f =(  0.0000000 )
                  (  0.0000000  1.0000000  0.0000000 )       (  0.0000000 )
                  (  0.0000000  0.0000000 -1.0000000 )       (  1.6862348 )


      isym =  4     180 deg rotation - cart. axis [1,0,0]        

 cryst.   s( 4) = (     1          0          0      )
                  (    -1         -1          0      )
                  (     0          0         -1      )

 cart.    s( 4) = (  1.0000000  0.0000000  0.0000000 )
                  (  0.0000000 -1.0000000  0.0000000 )
                  (  0.0000000  0.0000000 -1.0000000 )


      isym =  5     inversion                                    

 cryst.   s( 5) = (    -1          0          0      )
                  (     0         -1          0      )
                  (     0          0         -1      )

 cart.    s( 5) = ( -1.0000000  0.0000000  0.0000000 )
                  (  0.0000000 -1.0000000  0.0000000 )
                  (  0.0000000  0.0000000 -1.0000000 )


      isym =  6     inv. 180 deg rotation - cart. axis [0,0,1]   

 cryst.   s( 6) = (     1          0          0      )    f =(  0.0000000 )
                  (     0          1          0      )       (  0.0000000 )
                  (     0          0         -1      )       (  0.5000000 )

 cart.    s( 6) = (  1.0000000  0.0000000  0.0000000 )    f =(  0.0000000 )
                  (  0.0000000  1.0000000  0.0000000 )       (  0.0000000 )
                  (  0.0000000  0.0000000 -1.0000000 )       (  1.6862348 )


      isym =  7     inv. 180 deg rotation - cart. axis [0,1,0]   

 cryst.   s( 7) = (     1          0          0      )    f =(  0.0000000 )
                  (    -1         -1          0      )       (  0.0000000 )
                  (     0          0          1      )       ( -0.5000000 )

 cart.    s( 7) = (  1.0000000  0.0000000  0.0000000 )    f =(  0.0000000 )
                  (  0.0000000 -1.0000000  0.0000000 )       (  0.0000000 )
                  (  0.0000000  0.0000000  1.0000000 )       ( -1.6862348 )


      isym =  8     inv. 180 deg rotation - cart. axis [1,0,0]   

 cryst.   s( 8) = (    -1          0          0      )
                  (     1          1          0      )
                  (     0          0          1      )

 cart.    s( 8) = ( -1.0000000  0.0000000  0.0000000 )
                  (  0.0000000  1.0000000  0.0000000 )
                  (  0.0000000  0.0000000  1.0000000 )


     point group D_2h (mmm) 
     there are  8 classes
     the character table:

       E     C2    C2'   C2''  i     s_v   s_v'  s_v''
A_g    1.00  1.00  1.00  1.00  1.00  1.00  1.00  1.00
B_1g   1.00  1.00 -1.00 -1.00  1.00  1.00 -1.00 -1.00
B_2g   1.00 -1.00  1.00 -1.00  1.00 -1.00  1.00 -1.00
B_3g   1.00 -1.00 -1.00  1.00  1.00 -1.00 -1.00  1.00
A_u    1.00  1.00  1.00  1.00 -1.00 -1.00 -1.00 -1.00
B_1u   1.00  1.00 -1.00 -1.00 -1.00 -1.00  1.00  1.00
B_2u   1.00 -1.00  1.00 -1.00 -1.00  1.00 -1.00  1.00
B_3u   1.00 -1.00 -1.00  1.00 -1.00  1.00  1.00 -1.00

     the symmetry operations in each class and the name of the first element:

     E        1
          identity                                               
     C2       2
          180 deg rotation - cart. axis [0,0,1]                  
     C2'      4
          180 deg rotation - cart. axis [1,0,0]                  
     C2''     3
          180 deg rotation - cart. axis [0,1,0]                  
     i        5
          inversion                                              
     s_v      6
          inv. 180 deg rotation - cart. axis [0,0,1]             
     s_v'     8
          inv. 180 deg rotation - cart. axis [1,0,0]             
     s_v''    7
          inv. 180 deg rotation - cart. axis [0,1,0]             

   Cartesian axes

     site n.     atom                  positions (alat units)
         1           C   tau(   1) = (   0.0000000   0.0000000   0.8431174  )
         2           C   tau(   2) = (   0.0000000   0.0000000   2.5293522  )
         3           C   tau(   3) = (   0.0000000   0.5772925   0.8431174  )
         4           C   tau(   4) = (   0.5000000   0.2887329   2.5293522  )

   Crystallographic axes

     site n.     atom                  positions (cryst. coord.)
         1           C   tau(   1) = (  0.0000000  0.0000000  0.2500000  )
         2           C   tau(   2) = (  0.0000000  0.0000000  0.7500000  )
         3           C   tau(   3) = (  0.3333000  0.6666000  0.2500000  )
         4           C   tau(   4) = (  0.6667000  0.3334000  0.7500000  )

     number of k points=   129  Methfessel-Paxton smearing, width (Ry)=  0.0300
                       cart. coord. in units 2pi/alat
        k(    1) = (   0.0000000   0.0000000   0.0000000), wk =   0.0034722
        k(    2) = (   0.0000000   0.0000000   0.0741297), wk =   0.0069444
        k(    3) = (   0.0000000   0.0000000  -0.1482593), wk =   0.0034722
        k(    4) = (   0.0000000   0.0962250   0.0000000), wk =   0.0069444
        k(    5) = (   0.0000000   0.0962250   0.0741297), wk =   0.0138889
        k(    6) = (   0.0000000   0.0962250  -0.1482593), wk =   0.0069444
        k(    7) = (   0.0000000   0.1924501   0.0000000), wk =   0.0069444
        k(    8) = (   0.0000000   0.1924501   0.0741297), wk =   0.0138889
        k(    9) = (   0.0000000   0.1924501  -0.1482593), wk =   0.0069444
        k(   10) = (   0.0000000   0.2886751   0.0000000), wk =   0.0069444
        k(   11) = (   0.0000000   0.2886751   0.0741297), wk =   0.0138889
        k(   12) = (   0.0000000   0.2886751  -0.1482593), wk =   0.0069444
        k(   13) = (   0.0000000   0.3849002   0.0000000), wk =   0.0069444
        k(   14) = (   0.0000000   0.3849002   0.0741297), wk =   0.0138889
        k(   15) = (   0.0000000   0.3849002  -0.1482593), wk =   0.0069444
        k(   16) = (   0.0000000   0.4811252   0.0000000), wk =   0.0069444
        k(   17) = (   0.0000000   0.4811252   0.0741297), wk =   0.0138889
        k(   18) = (   0.0000000   0.4811252  -0.1482593), wk =   0.0069444
        k(   19) = (   0.0000000  -0.5773503   0.0000000), wk =   0.0034722
        k(   20) = (   0.0000000  -0.5773503   0.0741297), wk =   0.0069444
        k(   21) = (   0.0000000  -0.5773503  -0.1482593), wk =   0.0034722
        k(   22) = (   0.0833333   0.1443376   0.0000000), wk =   0.0138889
        k(   23) = (   0.0833333   0.1443376   0.0741297), wk =   0.0277778
        k(   24) = (   0.0833333   0.1443376  -0.1482593), wk =   0.0138889
        k(   25) = (   0.0833333   0.2405626   0.0000000), wk =   0.0138889
        k(   26) = (   0.0833333   0.2405626   0.0741297), wk =   0.0277778
        k(   27) = (   0.0833333   0.2405626  -0.1482593), wk =   0.0138889
        k(   28) = (   0.0833333   0.3367877   0.0000000), wk =   0.0138889
        k(   29) = (   0.0833333   0.3367877   0.0741297), wk =   0.0277778
        k(   30) = (   0.0833333   0.3367877  -0.1482593), wk =   0.0138889
        k(   31) = (   0.0833333   0.4330127   0.0000000), wk =   0.0138889
        k(   32) = (   0.0833333   0.4330127   0.0741297), wk =   0.0277778
        k(   33) = (   0.0833333   0.4330127  -0.1482593), wk =   0.0138889
        k(   34) = (   0.0833333   0.5292377   0.0000000), wk =   0.0138889
        k(   35) = (   0.0833333   0.5292377   0.0741297), wk =   0.0277778
        k(   36) = (   0.0833333   0.5292377  -0.1482593), wk =   0.0138889
        k(   37) = (   0.1666667   0.2886751   0.0000000), wk =   0.0138889
        k(   38) = (   0.1666667   0.2886751   0.0741297), wk =   0.0277778
        k(   39) = (   0.1666667   0.2886751  -0.1482593), wk =   0.0138889
        k(   40) = (   0.1666667   0.3849002   0.0000000), wk =   0.0138889
        k(   41) = (   0.1666667   0.3849002   0.0741297), wk =   0.0277778
        k(   42) = (   0.1666667   0.3849002  -0.1482593), wk =   0.0138889
        k(   43) = (   0.1666667   0.4811252   0.0000000), wk =   0.0138889
        k(   44) = (   0.1666667   0.4811252   0.0741297), wk =   0.0277778
        k(   45) = (   0.1666667   0.4811252  -0.1482593), wk =   0.0138889
        k(   46) = (   0.1666667   0.5773503   0.0000000), wk =   0.0069444
        k(   47) = (   0.1666667   0.5773503   0.0741297), wk =   0.0138889
        k(   48) = (   0.1666667   0.5773503  -0.1482593), wk =   0.0069444
        k(   49) = (   0.2500000   0.4330127   0.0000000), wk =   0.0138889
        k(   50) = (   0.2500000   0.4330127   0.0741297), wk =   0.0277778
        k(   51) = (   0.2500000   0.4330127  -0.1482593), wk =   0.0138889
        k(   52) = (   0.2500000   0.5292377   0.0000000), wk =   0.0138889
        k(   53) = (   0.2500000   0.5292377   0.0741297), wk =   0.0277778
        k(   54) = (   0.2500000   0.5292377  -0.1482593), wk =   0.0138889
        k(   55) = (   0.3333333   0.5773503   0.0000000), wk =   0.0069444
        k(   56) = (   0.3333333   0.5773503   0.0741297), wk =   0.0138889
        k(   57) = (   0.3333333   0.5773503  -0.1482593), wk =   0.0069444
        k(   58) = (  -0.0833333  -0.0481125   0.0000000), wk =   0.0138889
        k(   59) = (  -0.0833333  -0.0481125  -0.0741297), wk =   0.0277778
        k(   60) = (  -0.0833333  -0.0481125   0.1482593), wk =   0.0138889
        k(   61) = (  -0.1666667  -0.0962250   0.0000000), wk =   0.0138889
        k(   62) = (  -0.1666667  -0.0962250  -0.0741297), wk =   0.0277778
        k(   63) = (  -0.1666667  -0.0962250   0.1482593), wk =   0.0138889
        k(   64) = (  -0.2500000  -0.1443376   0.0000000), wk =   0.0138889
        k(   65) = (  -0.2500000  -0.1443376  -0.0741297), wk =   0.0277778
        k(   66) = (  -0.2500000  -0.1443376   0.1482593), wk =   0.0138889
        k(   67) = (  -0.3333333  -0.1924501   0.0000000), wk =   0.0138889
        k(   68) = (  -0.3333333  -0.1924501  -0.0741297), wk =   0.0277778
        k(   69) = (  -0.3333333  -0.1924501   0.1482593), wk =   0.0138889
        k(   70) = (  -0.4166667  -0.2405626   0.0000000), wk =   0.0138889
        k(   71) = (  -0.4166667  -0.2405626  -0.0741297), wk =   0.0277778
        k(   72) = (  -0.4166667  -0.2405626   0.1482593), wk =   0.0138889
        k(   73) = (   0.5000000   0.2886751   0.0000000), wk =   0.0069444
        k(   74) = (   0.5000000   0.2886751  -0.0741297), wk =   0.0138889
        k(   75) = (   0.5000000   0.2886751   0.1482593), wk =   0.0069444
        k(   76) = (   0.1666667   0.0000000   0.0000000), wk =   0.0069444
        k(   77) = (   0.1666667   0.0000000  -0.0741297), wk =   0.0138889
        k(   78) = (   0.1666667   0.0000000   0.1482593), wk =   0.0069444
        k(   79) = (  -0.1666667  -0.1924501   0.0000000), wk =   0.0138889
        k(   80) = (   0.2500000  -0.0481125   0.0000000), wk =   0.0138889
        k(   81) = (  -0.1666667  -0.1924501  -0.0741297), wk =   0.0277778
        k(   82) = (   0.2500000  -0.0481125  -0.0741297), wk =   0.0277778
        k(   83) = (  -0.1666667  -0.1924501   0.1482593), wk =   0.0138889
        k(   84) = (   0.2500000  -0.0481125   0.1482593), wk =   0.0138889
        k(   85) = (  -0.2500000  -0.2405626   0.0000000), wk =   0.0138889
        k(   86) = (   0.3333333  -0.0962250   0.0000000), wk =   0.0138889
        k(   87) = (  -0.2500000  -0.2405626  -0.0741297), wk =   0.0277778
        k(   88) = (   0.3333333  -0.0962250  -0.0741297), wk =   0.0277778
        k(   89) = (  -0.2500000  -0.2405626   0.1482593), wk =   0.0138889
        k(   90) = (   0.3333333  -0.0962250   0.1482593), wk =   0.0138889
        k(   91) = (  -0.3333333  -0.2886751   0.0000000), wk =   0.0138889
        k(   92) = (   0.4166667  -0.1443376   0.0000000), wk =   0.0138889
        k(   93) = (  -0.3333333  -0.2886751  -0.0741297), wk =   0.0277778
        k(   94) = (   0.4166667  -0.1443376  -0.0741297), wk =   0.0277778
        k(   95) = (  -0.3333333  -0.2886751   0.1482593), wk =   0.0138889
        k(   96) = (   0.4166667  -0.1443376   0.1482593), wk =   0.0138889
        k(   97) = (  -0.4166667  -0.3367877   0.0000000), wk =   0.0138889
        k(   98) = (   0.5000000  -0.1924501   0.0000000), wk =   0.0138889
        k(   99) = (  -0.4166667  -0.3367877  -0.0741297), wk =   0.0277778
        k(  100) = (   0.5000000  -0.1924501  -0.0741297), wk =   0.0277778
        k(  101) = (  -0.4166667  -0.3367877   0.1482593), wk =   0.0138889
        k(  102) = (   0.5000000  -0.1924501   0.1482593), wk =   0.0138889
        k(  103) = (   0.3333333   0.0000000   0.0000000), wk =   0.0069444
        k(  104) = (   0.3333333   0.0000000  -0.0741297), wk =   0.0138889
        k(  105) = (   0.3333333   0.0000000   0.1482593), wk =   0.0069444
        k(  106) = (  -0.2500000  -0.3367877   0.0000000), wk =   0.0138889
        k(  107) = (   0.4166667  -0.0481125   0.0000000), wk =   0.0138889
        k(  108) = (  -0.2500000  -0.3367877  -0.0741297), wk =   0.0277778
        k(  109) = (   0.4166667  -0.0481125  -0.0741297), wk =   0.0277778
        k(  110) = (  -0.2500000  -0.3367877   0.1482593), wk =   0.0138889
        k(  111) = (   0.4166667  -0.0481125   0.1482593), wk =   0.0138889
        k(  112) = (  -0.3333333  -0.3849002   0.0000000), wk =   0.0138889
        k(  113) = (   0.5000000  -0.0962250   0.0000000), wk =   0.0138889
        k(  114) = (  -0.3333333  -0.3849002  -0.0741297), wk =   0.0277778
        k(  115) = (   0.5000000  -0.0962250  -0.0741297), wk =   0.0277778
        k(  116) = (  -0.3333333  -0.3849002   0.1482593), wk =   0.0138889
        k(  117) = (   0.5000000  -0.0962250   0.1482593), wk =   0.0138889
        k(  118) = (  -0.4166667  -0.4330127   0.0000000), wk =   0.0138889
        k(  119) = (  -0.4166667  -0.4330127  -0.0741297), wk =   0.0277778
        k(  120) = (  -0.4166667  -0.4330127   0.1482593), wk =   0.0138889
        k(  121) = (   0.5000000  -0.0000000   0.0000000), wk =   0.0069444
        k(  122) = (   0.5000000  -0.0000000  -0.0741297), wk =   0.0138889
        k(  123) = (   0.5000000  -0.0000000   0.1482593), wk =   0.0069444
        k(  124) = (  -0.3333333  -0.4811252   0.0000000), wk =   0.0138889
        k(  125) = (   0.5833333  -0.0481125   0.0000000), wk =   0.0138889
        k(  126) = (  -0.3333333  -0.4811252  -0.0741297), wk =   0.0277778
        k(  127) = (   0.5833333  -0.0481125  -0.0741297), wk =   0.0277778
        k(  128) = (  -0.3333333  -0.4811252   0.1482593), wk =   0.0138889
        k(  129) = (   0.5833333  -0.0481125   0.1482593), wk =   0.0138889

                       cryst. coord.
        k(    1) = (   0.0000000   0.0000000   0.0000000), wk =   0.0034722
        k(    2) = (   0.0000000   0.0000000   0.2500000), wk =   0.0069444
        k(    3) = (   0.0000000   0.0000000  -0.5000000), wk =   0.0034722
        k(    4) = (   0.0000000   0.0833333   0.0000000), wk =   0.0069444
        k(    5) = (   0.0000000   0.0833333   0.2500000), wk =   0.0138889
        k(    6) = (   0.0000000   0.0833333  -0.5000000), wk =   0.0069444
        k(    7) = (   0.0000000   0.1666667   0.0000000), wk =   0.0069444
        k(    8) = (   0.0000000   0.1666667   0.2500000), wk =   0.0138889
        k(    9) = (   0.0000000   0.1666667  -0.5000000), wk =   0.0069444
        k(   10) = (   0.0000000   0.2500000   0.0000000), wk =   0.0069444
        k(   11) = (   0.0000000   0.2500000   0.2500000), wk =   0.0138889
        k(   12) = (   0.0000000   0.2500000  -0.5000000), wk =   0.0069444
        k(   13) = (   0.0000000   0.3333333   0.0000000), wk =   0.0069444
        k(   14) = (   0.0000000   0.3333333   0.2500000), wk =   0.0138889
        k(   15) = (   0.0000000   0.3333333  -0.5000000), wk =   0.0069444
        k(   16) = (   0.0000000   0.4166667   0.0000000), wk =   0.0069444
        k(   17) = (   0.0000000   0.4166667   0.2500000), wk =   0.0138889
        k(   18) = (   0.0000000   0.4166667  -0.5000000), wk =   0.0069444
        k(   19) = (   0.0000000  -0.5000000   0.0000000), wk =   0.0034722
        k(   20) = (   0.0000000  -0.5000000   0.2500000), wk =   0.0069444
        k(   21) = (   0.0000000  -0.5000000  -0.5000000), wk =   0.0034722
        k(   22) = (   0.0833333   0.0833333   0.0000000), wk =   0.0138889
        k(   23) = (   0.0833333   0.0833333   0.2500000), wk =   0.0277778
        k(   24) = (   0.0833333   0.0833333  -0.5000000), wk =   0.0138889
        k(   25) = (   0.0833333   0.1666667   0.0000000), wk =   0.0138889
        k(   26) = (   0.0833333   0.1666667   0.2500000), wk =   0.0277778
        k(   27) = (   0.0833333   0.1666667  -0.5000000), wk =   0.0138889
        k(   28) = (   0.0833333   0.2500000   0.0000000), wk =   0.0138889
        k(   29) = (   0.0833333   0.2500000   0.2500000), wk =   0.0277778
        k(   30) = (   0.0833333   0.2500000  -0.5000000), wk =   0.0138889
        k(   31) = (   0.0833333   0.3333333   0.0000000), wk =   0.0138889
        k(   32) = (   0.0833333   0.3333333   0.2500000), wk =   0.0277778
        k(   33) = (   0.0833333   0.3333333  -0.5000000), wk =   0.0138889
        k(   34) = (   0.0833333   0.4166667   0.0000000), wk =   0.0138889
        k(   35) = (   0.0833333   0.4166667   0.2500000), wk =   0.0277778
        k(   36) = (   0.0833333   0.4166667  -0.5000000), wk =   0.0138889
        k(   37) = (   0.1666667   0.1666667   0.0000000), wk =   0.0138889
        k(   38) = (   0.1666667   0.1666667   0.2500000), wk =   0.0277778
        k(   39) = (   0.1666667   0.1666667  -0.5000000), wk =   0.0138889
        k(   40) = (   0.1666667   0.2500000   0.0000000), wk =   0.0138889
        k(   41) = (   0.1666667   0.2500000   0.2500000), wk =   0.0277778
        k(   42) = (   0.1666667   0.2500000  -0.5000000), wk =   0.0138889
        k(   43) = (   0.1666667   0.3333333   0.0000000), wk =   0.0138889
        k(   44) = (   0.1666667   0.3333333   0.2500000), wk =   0.0277778
        k(   45) = (   0.1666667   0.3333333  -0.5000000), wk =   0.0138889
        k(   46) = (   0.1666667   0.4166667   0.0000000), wk =   0.0069444
        k(   47) = (   0.1666667   0.4166667   0.2500000), wk =   0.0138889
        k(   48) = (   0.1666667   0.4166667  -0.5000000), wk =   0.0069444
        k(   49) = (   0.2500000   0.2500000   0.0000000), wk =   0.0138889
        k(   50) = (   0.2500000   0.2500000   0.2500000), wk =   0.0277778
        k(   51) = (   0.2500000   0.2500000  -0.5000000), wk =   0.0138889
        k(   52) = (   0.2500000   0.3333333   0.0000000), wk =   0.0138889
        k(   53) = (   0.2500000   0.3333333   0.2500000), wk =   0.0277778
        k(   54) = (   0.2500000   0.3333333  -0.5000000), wk =   0.0138889
        k(   55) = (   0.3333333   0.3333333   0.0000000), wk =   0.0069444
        k(   56) = (   0.3333333   0.3333333   0.2500000), wk =   0.0138889
        k(   57) = (   0.3333333   0.3333333  -0.5000000), wk =   0.0069444
        k(   58) = (  -0.0833333  -0.0000000   0.0000000), wk =   0.0138889
        k(   59) = (  -0.0833333  -0.0000000  -0.2500000), wk =   0.0277778
        k(   60) = (  -0.0833333  -0.0000000   0.5000000), wk =   0.0138889
        k(   61) = (  -0.1666667  -0.0000000   0.0000000), wk =   0.0138889
        k(   62) = (  -0.1666667  -0.0000000  -0.2500000), wk =   0.0277778
        k(   63) = (  -0.1666667  -0.0000000   0.5000000), wk =   0.0138889
        k(   64) = (  -0.2500000   0.0000000   0.0000000), wk =   0.0138889
        k(   65) = (  -0.2500000   0.0000000  -0.2500000), wk =   0.0277778
        k(   66) = (  -0.2500000   0.0000000   0.5000000), wk =   0.0138889
        k(   67) = (  -0.3333333  -0.0000000   0.0000000), wk =   0.0138889
        k(   68) = (  -0.3333333  -0.0000000  -0.2500000), wk =   0.0277778
        k(   69) = (  -0.3333333  -0.0000000   0.5000000), wk =   0.0138889
        k(   70) = (  -0.4166667   0.0000000   0.0000000), wk =   0.0138889
        k(   71) = (  -0.4166667   0.0000000  -0.2500000), wk =   0.0277778
        k(   72) = (  -0.4166667   0.0000000   0.5000000), wk =   0.0138889
        k(   73) = (   0.5000000   0.0000000   0.0000000), wk =   0.0069444
        k(   74) = (   0.5000000   0.0000000  -0.2500000), wk =   0.0138889
        k(   75) = (   0.5000000   0.0000000   0.5000000), wk =   0.0069444
        k(   76) = (   0.1666667  -0.0833333   0.0000000), wk =   0.0069444
        k(   77) = (   0.1666667  -0.0833333  -0.2500000), wk =   0.0138889
        k(   78) = (   0.1666667  -0.0833333   0.5000000), wk =   0.0069444
        k(   79) = (  -0.1666667  -0.0833333   0.0000000), wk =   0.0138889
        k(   80) = (   0.2500000  -0.1666667   0.0000000), wk =   0.0138889
        k(   81) = (  -0.1666667  -0.0833333  -0.2500000), wk =   0.0277778
        k(   82) = (   0.2500000  -0.1666667  -0.2500000), wk =   0.0277778
        k(   83) = (  -0.1666667  -0.0833333   0.5000000), wk =   0.0138889
        k(   84) = (   0.2500000  -0.1666667   0.5000000), wk =   0.0138889
        k(   85) = (  -0.2500000  -0.0833333   0.0000000), wk =   0.0138889
        k(   86) = (   0.3333333  -0.2500000   0.0000000), wk =   0.0138889
        k(   87) = (  -0.2500000  -0.0833333  -0.2500000), wk =   0.0277778
        k(   88) = (   0.3333333  -0.2500000  -0.2500000), wk =   0.0277778
        k(   89) = (  -0.2500000  -0.0833333   0.5000000), wk =   0.0138889
        k(   90) = (   0.3333333  -0.2500000   0.5000000), wk =   0.0138889
        k(   91) = (  -0.3333333  -0.0833333   0.0000000), wk =   0.0138889
        k(   92) = (   0.4166667  -0.3333333   0.0000000), wk =   0.0138889
        k(   93) = (  -0.3333333  -0.0833333  -0.2500000), wk =   0.0277778
        k(   94) = (   0.4166667  -0.3333333  -0.2500000), wk =   0.0277778
        k(   95) = (  -0.3333333  -0.0833333   0.5000000), wk =   0.0138889
        k(   96) = (   0.4166667  -0.3333333   0.5000000), wk =   0.0138889
        k(   97) = (  -0.4166667  -0.0833333   0.0000000), wk =   0.0138889
        k(   98) = (   0.5000000  -0.4166667   0.0000000), wk =   0.0138889
        k(   99) = (  -0.4166667  -0.0833333  -0.2500000), wk =   0.0277778
        k(  100) = (   0.5000000  -0.4166667  -0.2500000), wk =   0.0277778
        k(  101) = (  -0.4166667  -0.0833333   0.5000000), wk =   0.0138889
        k(  102) = (   0.5000000  -0.4166667   0.5000000), wk =   0.0138889
        k(  103) = (   0.3333333  -0.1666667   0.0000000), wk =   0.0069444
        k(  104) = (   0.3333333  -0.1666667  -0.2500000), wk =   0.0138889
        k(  105) = (   0.3333333  -0.1666667   0.5000000), wk =   0.0069444
        k(  106) = (  -0.2500000  -0.1666667   0.0000000), wk =   0.0138889
        k(  107) = (   0.4166667  -0.2500000   0.0000000), wk =   0.0138889
        k(  108) = (  -0.2500000  -0.1666667  -0.2500000), wk =   0.0277778
        k(  109) = (   0.4166667  -0.2500000  -0.2500000), wk =   0.0277778
        k(  110) = (  -0.2500000  -0.1666667   0.5000000), wk =   0.0138889
        k(  111) = (   0.4166667  -0.2500000   0.5000000), wk =   0.0138889
        k(  112) = (  -0.3333333  -0.1666667   0.0000000), wk =   0.0138889
        k(  113) = (   0.5000000  -0.3333333   0.0000000), wk =   0.0138889
        k(  114) = (  -0.3333333  -0.1666667  -0.2500000), wk =   0.0277778
        k(  115) = (   0.5000000  -0.3333333  -0.2500000), wk =   0.0277778
        k(  116) = (  -0.3333333  -0.1666667   0.5000000), wk =   0.0138889
        k(  117) = (   0.5000000  -0.3333333   0.5000000), wk =   0.0138889
        k(  118) = (  -0.4166667  -0.1666667   0.0000000), wk =   0.0138889
        k(  119) = (  -0.4166667  -0.1666667  -0.2500000), wk =   0.0277778
        k(  120) = (  -0.4166667  -0.1666667   0.5000000), wk =   0.0138889
        k(  121) = (   0.5000000  -0.2500000   0.0000000), wk =   0.0069444
        k(  122) = (   0.5000000  -0.2500000  -0.2500000), wk =   0.0138889
        k(  123) = (   0.5000000  -0.2500000   0.5000000), wk =   0.0069444
        k(  124) = (  -0.3333333  -0.2500000   0.0000000), wk =   0.0138889
        k(  125) = (   0.5833333  -0.3333333   0.0000000), wk =   0.0138889
        k(  126) = (  -0.3333333  -0.2500000  -0.2500000), wk =   0.0277778
        k(  127) = (   0.5833333  -0.3333333  -0.2500000), wk =   0.0277778
        k(  128) = (  -0.3333333  -0.2500000   0.5000000), wk =   0.0138889
        k(  129) = (   0.5833333  -0.3333333   0.5000000), wk =   0.0138889

     Dense  grid:    34301 G-vectors     FFT dimensions: (  30,  30,  96)

     Smooth grid:    12031 G-vectors     FFT dimensions: (  20,  20,  72)

     Dynamical RAM for                 wfc:       0.28 MB

     Dynamical RAM for     wfc (w. buffer):      36.04 MB

     Dynamical RAM for           str. fact:       0.52 MB

     Dynamical RAM for           local pot:       0.00 MB

     Dynamical RAM for          nlocal pot:       0.74 MB

     Dynamical RAM for                qrad:       0.44 MB

     Dynamical RAM for          rho,v,vnew:       3.55 MB

     Dynamical RAM for               rhoin:       1.18 MB

     Dynamical RAM for            rho*nmix:       8.37 MB

     Dynamical RAM for           G-vectors:       2.05 MB

     Dynamical RAM for          h,s,v(r/c):       0.03 MB

     Dynamical RAM for          <psi|beta>:       0.01 MB

     Dynamical RAM for                 psi:       0.55 MB

     Dynamical RAM for                hpsi:       0.55 MB

     Dynamical RAM for                spsi:       0.55 MB

     Dynamical RAM for      wfcinit/wfcrot:       0.75 MB

     Dynamical RAM for           addusdens:      24.60 MB

     Dynamical RAM for          addusforce:      28.00 MB

     Dynamical RAM for         addusstress:      26.17 MB

     Estimated static dynamical RAM per process >      57.24 MB

     Estimated max dynamical RAM per process >      85.24 MB

     Check: negative core charge=   -0.000010

     Initial potential from superposition of free atoms

     starting charge   15.99983, renormalised to   16.00000
     Starting wfcs are   16 randomized atomic wfcs

     total cpu time spent up to now is        6.5 secs

     Self-consistent Calculation

     iteration #  1     ecut=    45.00 Ry     beta= 0.70
     Davidson diagonalization with overlap
     ethr =  1.00E-02,  avg # of iterations =  2.8

     total cpu time spent up to now is       20.1 secs

     total energy              =     -49.66236852 Ry
     estimated scf accuracy    <       0.37712196 Ry

     iteration #  2     ecut=    45.00 Ry     beta= 0.70
     Davidson diagonalization with overlap
     ethr =  2.36E-03,  avg # of iterations =  2.4

     total cpu time spent up to now is       37.3 secs

     total energy              =     -49.71348533 Ry
     estimated scf accuracy    <       0.00436977 Ry

     iteration #  3     ecut=    45.00 Ry     beta= 0.70
     Davidson diagonalization with overlap
     c_bands:  1 eigenvalues not converged
     ethr =  2.73E-05,  avg # of iterations =  7.0

     total cpu time spent up to now is       57.7 secs

     total energy              =     -49.71386045 Ry
     estimated scf accuracy    <       0.00031163 Ry

     iteration #  4     ecut=    45.00 Ry     beta= 0.70
     Davidson diagonalization with overlap
     ethr =  1.95E-06,  avg # of iterations =  4.0

     total cpu time spent up to now is       80.3 secs

     total energy              =     -49.71387799 Ry
     estimated scf accuracy    <       0.00000200 Ry

     iteration #  5     ecut=    45.00 Ry     beta= 0.70
     Davidson diagonalization with overlap
     ethr =  1.25E-08,  avg # of iterations =  2.9

     total cpu time spent up to now is       95.6 secs

     total energy              =     -49.71387910 Ry
     estimated scf accuracy    <       0.00000006 Ry

     iteration #  6     ecut=    45.00 Ry     beta= 0.70
     Davidson diagonalization with overlap
     ethr =  3.87E-10,  avg # of iterations =  2.2

     total cpu time spent up to now is      111.7 secs

     total energy              =     -49.71387911 Ry
     estimated scf accuracy    <       0.00000001 Ry

     iteration #  7     ecut=    45.00 Ry     beta= 0.70
     Davidson diagonalization with overlap
     ethr =  8.27E-11,  avg # of iterations =  1.6

     total cpu time spent up to now is      128.0 secs

     End of self-consistent calculation

          k = 0.0000 0.0000 0.0000 (  1497 PWs)   bands (ev):

   -14.7002 -14.6549  -3.0622  -2.4982   1.7288   1.7302   1.7330   1.7345
     7.9711  13.0931  13.0987  13.0997

     occupation numbers 
     1.0000   1.0000   1.0000   1.0000   1.0000   1.0000   1.0000   1.0000
    -0.0000  -0.0000  -0.0000  -0.0000

          k = 0.0000 0.0000 0.0741 (  1480 PWs)   bands (ev):

   -14.6935 -14.6616  -2.9859  -2.5879   1.7290   1.7301   1.7333   1.7343
     8.3337  10.6647  13.0948  13.0993

     occupation numbers 
     1.0000   1.0000   1.0000   1.0000   1.0000   1.0000   1.0000   1.0000
    -0.0000  -0.0000  -0.0000  -0.0000

          k = 0.0000 0.0000-0.1483 (  1450 PWs)   bands (ev):

   -14.6776 -14.6776  -2.7936  -2.7936   1.7296   1.7296   1.7338   1.7338
     9.3281   9.3281  13.0964  13.0965

     occupation numbers 
     1.0000   1.0000   1.0000   1.0000   1.0000   1.0000   1.0000   1.0000
    -0.0000  -0.0000  -0.0000  -0.0000

          k = 0.0000 0.0962 0.0000 (  1493 PWs)   bands (ev):

   -14.5366 -14.4920  -2.8647  -2.3055   1.0798   1.0829   1.3957   1.3982
     8.1836  11.6852  13.1508  13.1757

     occupation numbers 
     1.0000   1.0000   1.0000   1.0000   1.0000   1.0000   1.0000   1.0000
    -0.0000  -0.0000  -0.0000  -0.0000

          k = 0.0000 0.0962 0.0741 (  1489 PWs)   bands (ev):

   -14.5301 -14.4986  -2.7891  -2.3945   1.0803   1.0825   1.3961   1.3978
     8.5443  10.8629  13.1616  13.1741

     occupation numbers 
     1.0000   1.0000   1.0000   1.0000   1.0000   1.0000   1.0000   1.0000
    -0.0000  -0.0000  -0.0000  -0.0000

          k = 0.0000 0.0962-0.1483 (  1486 PWs)   bands (ev):

   -14.5144 -14.5144  -2.5983  -2.5983   1.0813   1.0813   1.3969   1.3969
     9.5334   9.5334  13.1695  13.1696

     occupation numbers 
     1.0000   1.0000   1.0000   1.0000   1.0000   1.0000   1.0000   1.0000
    -0.0000  -0.0000  -0.0000  -0.0000

          k = 0.0000 0.1925 0.0000 (  1503 PWs)   bands (ev):

   -14.0479 -14.0049  -2.2773  -1.7332  -0.5535  -0.5468   0.6059   0.6096
     8.8215  12.2526  13.0753  13.1296

     occupation numbers 
     1.0000   1.0000   1.0000   1.0000   1.0000   1.0000   1.0000   1.0000
    -0.0000  -0.0000  -0.0000  -0.0000

          k = 0.0000 0.1925 0.0741 (  1496 PWs)   bands (ev):

   -14.0416 -14.0113  -2.2035  -1.8195  -0.5525  -0.5478   0.6064   0.6090
     9.1758  11.4481  13.1009  13.1267

     occupation numbers 
     1.0000   1.0000   1.0000   1.0000   1.0000   1.0000   1.0000   1.0000
    -0.0000  -0.0000  -0.0000  -0.0000

          k = 0.0000 0.1925-0.1483 (  1490 PWs)   bands (ev):

   -14.0265 -14.0265  -2.0178  -2.0178  -0.5502  -0.5502   0.6078   0.6078
    10.1469  10.1469  13.1172  13.1172

     occupation numbers 
     1.0000   1.0000   1.0000   1.0000   1.0000   1.0000   1.0000   1.0000
    -0.0000  -0.0000  -0.0000  -0.0000

          k = 0.0000 0.2887 0.0000 (  1497 PWs)   bands (ev):

   -13.2397 -13.1995  -2.6462  -2.6347  -1.3179  -0.8017  -0.2712  -0.2667
     9.8819  11.9184  12.0377  12.7877

     occupation numbers 
     1.0000   1.0000   1.0000   1.0000   1.0000   1.0000   1.0000   1.0000
    -0.0000  -0.0000  -0.0000  -0.0000

          k = 0.0000 0.2887 0.0741 (  1502 PWs)   bands (ev):

   -13.2338 -13.2055  -2.6446  -2.6364  -1.2477  -0.8833  -0.2705  -0.2674
    10.2188  11.8846  12.0065  12.5408

     occupation numbers 
     1.0000   1.0000   1.0000   1.0000   1.0000   1.0000   1.0000   1.0000
    -0.0000  -0.0000  -0.0000  -0.0000

          k = 0.0000 0.2887-0.1483 (  1508 PWs)   bands (ev):

   -13.2197 -13.2197  -2.6405  -2.6405  -1.0711  -1.0711  -0.2690  -0.2690
    11.1179  11.1179  12.0689  12.0689

     occupation numbers 
     1.0000   1.0000   1.0000   1.0000   1.0000   1.0000   1.0000   1.0000
    -0.0000  -0.0000  -0.0000  -0.0000

          k = 0.0000 0.3849 0.0000 (  1504 PWs)   bands (ev):

   -12.1243 -12.0878  -4.8432  -4.8267  -1.0025  -0.9976  -0.0333   0.4345
     9.5906   9.8065  11.3483  12.4541

     occupation numbers 
     1.0000   1.0000   1.0000   1.0000   1.0000   1.0000   1.0000   1.0000
    -0.0000  -0.0000  -0.0000  -0.0000

          k = 0.0000 0.3849 0.0741 (  1509 PWs)   bands (ev):

   -12.1190 -12.0933  -4.8408  -4.8292  -1.0018  -0.9984   0.0309   0.3612
     9.6132   9.7670  11.6826  12.4540

     occupation numbers 
     1.0000   1.0000   1.0000   1.0000   1.0000   1.0000   1.0000   1.0000
    -0.0000  -0.0000  -0.0000  -0.0000

          k = 0.0000 0.3849-0.1483 (  1502 PWs)   bands (ev):

   -12.1062 -12.1062  -4.8350  -4.8350  -1.0001  -1.0001   0.1916   0.1916
     9.6826   9.6826  12.3710  12.3710

     occupation numbers 
     1.0000   1.0000   1.0000   1.0000   1.0000   1.0000   1.0000   1.0000
    -0.0000  -0.0000  -0.0000  -0.0000

          k = 0.0000 0.4811 0.0000 (  1508 PWs)   bands (ev):

   -10.7329 -10.7014  -6.9366  -6.9154  -1.4742  -1.4690   1.4283   1.7960
     7.4408   7.7131  12.2037  12.2608

     occupation numbers 
     1.0000   1.0000   1.0000   1.0000   1.0000   1.0000   1.0000   1.0000
    -0.0000  -0.0000  -0.0000  -0.0000

          k = 0.0000 0.4811 0.0741 (  1510 PWs)   bands (ev):

   -10.7284 -10.7060  -6.9335  -6.9185  -1.4734  -1.4698   1.4800   1.7398
     7.4740   7.6666  12.2135  12.2542

     occupation numbers 
     1.0000   1.0000   1.0000   1.0000   1.0000   1.0000   1.0000   1.0000
    -0.0000  -0.0000  -0.0000  -0.0000

          k = 0.0000 0.4811-0.1483 (  1500 PWs)   bands (ev):

   -10.7172 -10.7172  -6.9259  -6.9259  -1.4716  -1.4716   1.6076   1.6076
     7.5637   7.5637  12.2351  12.2351

     occupation numbers 
     1.0000   1.0000   1.0000   1.0000   1.0000   1.0000   1.0000   1.0000
    -0.0000  -0.0000  -0.0000  -0.0000

          k = 0.0000-0.5774 0.0000 (  1508 PWs)   bands (ev):

    -9.4714  -9.4565  -8.4270  -8.4150  -1.6361  -1.6309   2.3583   2.5311
     6.3741   6.6118  12.1214  12.1874

     occupation numbers 
     1.0000   1.0000   1.0000   1.0000   1.0000   1.0000   1.0000   1.0000
    -0.0000  -0.0000  -0.0000  -0.0000

          k = 0.0000-0.5774 0.0741 (  1520 PWs)   bands (ev):

    -9.4692  -9.4586  -8.4253  -8.4169  -1.6353  -1.6317   2.3851   2.5075
     6.3989   6.5669  12.1310  12.1776

     occupation numbers 
     1.0000   1.0000   1.0000   1.0000   1.0000   1.0000   1.0000   1.0000
    -0.0000  -0.0000  -0.0000  -0.0000

          k = 0.0000-0.5774-0.1483 (  1520 PWs)   bands (ev):

    -9.4639  -9.4639  -8.4212  -8.4212  -1.6335  -1.6335   2.4479   2.4479
     6.4728   6.4728  12.1542  12.1542

     occupation numbers 
     1.0000   1.0000   1.0000   1.0000   1.0000   1.0000   1.0000   1.0000
    -0.0000  -0.0000  -0.0000  -0.0000

          k = 0.0833 0.1443 0.0000 (  1505 PWs)   bands (ev):

   -14.2105 -14.1670  -2.4722  -1.9229   0.0500   0.0531   0.7211   0.7232
     8.6093  12.0697  13.4288  13.4791

     occupation numbers 
     1.0000   1.0000   1.0000   1.0000   1.0000   1.0000   1.0000   1.0000
    -0.0000  -0.0000  -0.0000  -0.0000

          k = 0.0833 0.1443 0.0741 (  1502 PWs)   bands (ev):

   -14.2042 -14.1734  -2.3978  -2.0101   0.0505   0.0527   0.7214   0.7229
     8.9659  11.2572  13.4525  13.4763

     occupation numbers 
     1.0000   1.0000   1.0000   1.0000   1.0000   1.0000   1.0000   1.0000
    -0.0000  -0.0000  -0.0000  -0.0000

          k = 0.0833 0.1443-0.1483 (  1500 PWs)   bands (ev):

   -14.1889 -14.1889  -2.2103  -2.2103   0.0516   0.0516   0.7222   0.7222
     9.9440   9.9440  13.4682  13.4682

     occupation numbers 
     1.0000   1.0000   1.0000   1.0000   1.0000   1.0000   1.0000   1.0000
    -0.0000  -0.0000  -0.0000  -0.0000

          k = 0.0833 0.2406 0.0000 (  1500 PWs)   bands (ev):

   -13.5620 -13.5208  -1.6978  -1.6564  -1.6489  -1.1697  -0.2732  -0.2689
     9.4602  12.6994  12.8143  13.0103

     occupation numbers 
     1.0000   1.0000   1.0000   1.0000   1.0000   1.0000   1.0000   1.0000
    -0.0000  -0.0000  -0.0000  -0.0000

          k = 0.0833 0.2406 0.0741 (  1503 PWs)   bands (ev):

   -13.5560 -13.5269  -1.6554  -1.6501  -1.6259  -1.2533  -0.2726  -0.2695
     9.8073  12.0163  12.8185  12.9005

     occupation numbers 
     1.0000   1.0000   1.0000   1.0000   1.0000   1.0000   1.0000   1.0000
    -0.0000  -0.0000  -0.0000  -0.0000

          k = 0.0833 0.2406-0.1483 (  1506 PWs)   bands (ev):

   -13.5415 -13.5415  -1.6527  -1.6527  -1.4455  -1.4455  -0.2710  -0.2710
    10.7571  10.7571  12.8530  12.8532

     occupation numbers 
     1.0000   1.0000   1.0000   1.0000   1.0000   1.0000   1.0000   1.0000
    -0.0000  -0.0000  -0.0000  -0.0000

          k = 0.0833 0.3368 0.0000 (  1514 PWs)   bands (ev):

   -12.6001 -12.5621  -3.7240  -3.7108  -1.1574  -1.1514  -0.5699  -0.0786
    10.6311  10.7298  10.7830  13.3094

     occupation numbers 
     1.0000   1.0000   1.0000   1.0000   1.0000   1.0000   1.0000   1.0000
    -0.0000  -0.0000  -0.0000  -0.0000

          k = 0.0833 0.3368 0.0741 (  1506 PWs)   bands (ev):

   -12.5946 -12.5677  -3.7220  -3.7128  -1.1566  -1.1523  -0.5028  -0.1559
    10.6289  10.7491  11.0959  13.1312

     occupation numbers 
     1.0000   1.0000   1.0000   1.0000   1.0000   1.0000   1.0000   1.0000
    -0.0000  -0.0000  -0.0000  -0.0000

          k = 0.0833 0.3368-0.1483 (  1504 PWs)   bands (ev):

   -12.5812 -12.5812  -3.7174  -3.7174  -1.1544  -1.1544  -0.3344  -0.3344
    10.6856  10.6856  12.0048  12.0048

     occupation numbers 
     1.0000   1.0000   1.0000   1.0000   1.0000   1.0000   1.0000   1.0000
    -0.0000  -0.0000  -0.0000  -0.0000

          k = 0.0833 0.4330 0.0000 (  1522 PWs)   bands (ev):

   -11.3436 -11.3098  -5.8404  -5.8220  -1.7909  -1.7841   0.8335   1.2587
     8.3981   8.6295  12.3877  13.0278

     occupation numbers 
     1.0000   1.0000   1.0000   1.0000   1.0000   1.0000   1.0000   1.0000
    -0.0000  -0.0000  -0.0000  -0.0000

          k = 0.0833 0.4330 0.0741 (  1517 PWs)   bands (ev):

   -11.3387 -11.3148  -5.8377  -5.8247  -1.7899  -1.7851   0.8924   1.1927
     8.4272   8.5911  12.6784  13.0335

     occupation numbers 
     1.0000   1.0000   1.0000   1.0000   1.0000   1.0000   1.0000   1.0000
    -0.0000  -0.0000  -0.0000  -0.0000

          k = 0.0833 0.4330-0.1483 (  1514 PWs)   bands (ev):

   -11.3268 -11.3268  -5.8312  -5.8312  -1.7875  -1.7875   1.0389   1.0389
     8.5045   8.5045  13.0194  13.0194

     occupation numbers 
     1.0000   1.0000   1.0000   1.0000   1.0000   1.0000   1.0000   1.0000
    -0.0000  -0.0000  -0.0000  -0.0000

          k = 0.0833 0.5292 0.0000 (  1524 PWs)   bands (ev):

    -9.8691  -9.8420  -7.7733  -7.7520  -2.1186  -2.1115   2.2091   2.4750
     6.6424   6.8814  12.8513  12.9263

     occupation numbers 
     1.0000   1.0000   1.0000   1.0000   1.0000   1.0000   1.0000   1.0000
    -0.0000  -0.0000  -0.0000  -0.0000

          k = 0.0833 0.5292 0.0741 (  1515 PWs)   bands (ev):

    -9.8652  -9.8460  -7.7702  -7.7551  -2.1175  -2.1125   2.2479   2.4360
     6.6698   6.8389  12.8623  12.9153

     occupation numbers 
     1.0000   1.0000   1.0000   1.0000   1.0000   1.0000   1.0000   1.0000
    -0.0000  -0.0000  -0.0000  -0.0000

          k = 0.0833 0.5292-0.1483 (  1524 PWs)   bands (ev):

    -9.8556  -9.8556  -7.7627  -7.7627  -2.1150  -2.1150   2.3419   2.3419
     6.7469   6.7469  12.8888  12.8888

     occupation numbers 
     1.0000   1.0000   1.0000   1.0000   1.0000   1.0000   1.0000   1.0000
    -0.0000  -0.0000  -0.0000  -0.0000

          k = 0.1667 0.2887 0.0000 (  1509 PWs)   bands (ev):

   -12.7598 -12.7212  -2.9827  -2.9767  -1.6282  -1.6238  -0.7514  -0.2526
    10.5221  11.0959  11.1964  13.6817

     occupation numbers 
     1.0000   1.0000   1.0000   1.0000   1.0000   1.0000   1.0000   1.0000
    -0.0000  -0.0000  -0.0000  -0.0000

          k = 0.1667 0.2887 0.0741 (  1516 PWs)   bands (ev):

   -12.7542 -12.7269  -2.9818  -2.9776  -1.6276  -1.6244  -0.6833  -0.3311
    10.8549  11.1105  11.1818  12.9635

     occupation numbers 
     1.0000   1.0000   1.0000   1.0000   1.0000   1.0000   1.0000   1.0000
    -0.0000  -0.0000  -0.0000  -0.0000

          k = 0.1667 0.2887-0.1483 (  1518 PWs)   bands (ev):

   -12.7406 -12.7406  -2.9797  -2.9797  -1.6260  -1.6260  -0.5124  -0.5124
    11.1457  11.1457  11.7644  11.7644

     occupation numbers 
     1.0000   1.0000   1.0000   1.0000   1.0000   1.0000   1.0000   1.0000
    -0.0000  -0.0000  -0.0000  -0.0000

          k = 0.1667 0.3849 0.0000 (  1517 PWs)   bands (ev):

   -11.6553 -11.6204  -4.7064  -4.6938  -2.6823  -2.6741   0.5182   0.9687
     9.1400   9.2835  11.9937  14.9261

     occupation numbers 
     1.0000   1.0000   1.0000   1.0000   1.0000   1.0000   1.0000   1.0000
    -0.0000  -0.0000  -0.0000  -0.0000

          k = 0.1667 0.3849 0.0741 (  1515 PWs)   bands (ev):

   -11.6502 -11.6255  -4.7046  -4.6956  -2.6811  -2.6753   0.5801   0.8983
     9.1598   9.2615  12.3003  14.1626

     occupation numbers 
     1.0000   1.0000   1.0000   1.0000   1.0000   1.0000   1.0000   1.0000
    -0.0000  -0.0000  -0.0000  -0.0000

          k = 0.1667 0.3849-0.1483 (  1524 PWs)   bands (ev):

   -11.6380 -11.6380  -4.7001  -4.7001  -2.6783  -2.6783   0.7350   0.7350
     9.2097   9.2097  13.1241  13.1242

     occupation numbers 
     1.0000   1.0000   1.0000   1.0000   1.0000   1.0000   1.0000   1.0000
    -0.0000  -0.0000  -0.0000  -0.0000

          k = 0.1667 0.4811 0.0000 (  1522 PWs)   bands (ev):

   -10.2838 -10.2538  -6.6108  -6.5919  -3.2583  -3.2479   1.9803   2.3389
     7.2168   7.4107  13.8406  14.7160

     occupation numbers 
     1.0000   1.0000   1.0000   1.0000   1.0000   1.0000   1.0000   1.0000
    -0.0000  -0.0000  -0.0000  -0.0000

          k = 0.1667 0.4811 0.0741 (  1525 PWs)   bands (ev):

   -10.2795 -10.2582  -6.6080  -6.5947  -3.2568  -3.2494   2.0307   2.2841
     7.2424   7.3797  14.0848  14.7229

     occupation numbers 
     1.0000   1.0000   1.0000   1.0000   1.0000   1.0000   1.0000   1.0000
    -0.0000  -0.0000  -0.0000  -0.0000

          k = 0.1667 0.4811-0.1483 (  1520 PWs)   bands (ev):

   -10.2689 -10.2689  -6.6014  -6.6014  -3.2531  -3.2531   2.1552   2.1552
     7.3083   7.3083  14.6250  14.6250

     occupation numbers 
     1.0000   1.0000   1.0000   1.0000   1.0000   1.0000   1.0000   1.0000
    -0.0000  -0.0000  -0.0000  -0.0000

          k = 0.1667 0.5774 0.0000 (  1527 PWs)   bands (ev):

    -9.0513  -9.0371  -8.0308  -8.0203  -3.4431  -3.4322   2.9555   3.1246
     6.1941   6.3247  14.6170  14.7561

     occupation numbers 
     1.0000   1.0000   1.0000   1.0000   1.0000   1.0000   1.0000   1.0000
    -0.0000  -0.0000  -0.0000  -0.0000

          k = 0.1667 0.5774 0.0741 (  1526 PWs)   bands (ev):

    -9.0492  -9.0391  -8.0294  -8.0219  -3.4415  -3.4338   2.9819   3.1017
     6.2063   6.2991  14.6351  14.7327

     occupation numbers 
     1.0000   1.0000   1.0000   1.0000   1.0000   1.0000   1.0000   1.0000
    -0.0000  -0.0000  -0.0000  -0.0000

          k = 0.1667 0.5774-0.1483 (  1532 PWs)   bands (ev):

    -9.0441  -9.0441  -8.0257  -8.0257  -3.4377  -3.4377   3.0436   3.0436
     6.2460   6.2460  14.6809  14.6809

     occupation numbers 
     1.0000   1.0000   1.0000   1.0000   1.0000   1.0000   1.0000   1.0000
    -0.0000  -0.0000  -0.0000  -0.0000

          k = 0.2500 0.4330 0.0000 (  1525 PWs)   bands (ev):

   -10.4310 -10.4002  -5.7386  -5.7294  -4.1560  -4.1490   1.8837   2.2710
     7.5364   7.6727  13.6410  15.3844

     occupation numbers 
     1.0000   1.0000   1.0000   1.0000   1.0000   1.0000   1.0000   1.0000
    -0.0000  -0.0000  -0.0000  -0.0000

          k = 0.2500 0.4330 0.0741 (  1530 PWs)   bands (ev):

   -10.4265 -10.4048  -5.7373  -5.7308  -4.1550  -4.1500   1.9376   2.2112
     7.5563   7.6526  13.8707  15.0829

     occupation numbers 
     1.0000   1.0000   1.0000   1.0000   1.0000   1.0000   1.0000   1.0000
    -0.0000  -0.0000  -0.0000  -0.0000

          k = 0.2500 0.4330-0.1483 (  1534 PWs)   bands (ev):

   -10.4157 -10.4157  -5.7340  -5.7340  -4.1526  -4.1526   2.0714   2.0714
     7.6043   7.6043  14.4485  14.4486

     occupation numbers 
     1.0000   1.0000   1.0000   1.0000   1.0000   1.0000   1.0000   1.0000
    -0.0000  -0.0000  -0.0000  -0.0000

          k = 0.2500 0.5292 0.0000 (  1531 PWs)   bands (ev):

    -9.0135  -8.9891  -7.1553  -7.1396  -4.8635  -4.8518   3.3194   3.5836
     6.0301   6.1605  15.5760  15.6364

     occupation numbers 
     1.0000   1.0000   1.0000   1.0000   1.0000   1.0000   1.0000   1.0001
    -0.0001  -0.0000  -0.0000  -0.0000

          k = 0.2500 0.5292 0.0741 (  1531 PWs)   bands (ev):

    -9.0099  -8.9927  -7.1530  -7.1419  -4.8618  -4.8535   3.3577   3.5446
     6.0472   6.1395  15.4054  15.4977

     occupation numbers 
     1.0000   1.0000   1.0000   1.0000   1.0000   1.0000   1.0000   1.0001
    -0.0001  -0.0000  -0.0000  -0.0000

          k = 0.2500 0.5292-0.1483 (  1544 PWs)   bands (ev):

    -9.0013  -9.0013  -7.1475  -7.1475  -4.8577  -4.8577   3.4508   3.4508
     6.0914   6.0914  15.3409  15.3410

     occupation numbers 
     1.0000   1.0000   1.0000   1.0000   1.0000   1.0000   1.0000   1.0000
    -0.0000  -0.0000  -0.0000  -0.0000

          k = 0.3333 0.5774 0.0000 (  1527 PWs)   bands (ev):

    -7.8036  -7.7913  -7.7911  -7.7794  -5.7441  -5.7441   4.6447   4.7990
     4.7991   4.9615  15.4979  15.4985

     occupation numbers 
     1.0000   1.0000   1.0000   1.0000   1.0000   1.0000   0.7982   0.5030
     0.5028   0.1932  -0.0000  -0.0000

          k = 0.3333 0.5774 0.0741 (  1530 PWs)   bands (ev):

    -7.8001  -7.7913  -7.7911  -7.7829  -5.7441  -5.7441   4.6892   4.7999
     4.8000   4.9130  15.3296  15.3300

     occupation numbers 
     1.0000   1.0000   1.0000   1.0000   1.0000   1.0000   0.7215   0.5010
     0.5009   0.2762  -0.0000  -0.0000

          k = 0.3333 0.5774-0.1483 (  1542 PWs)   bands (ev):

    -7.7922  -7.7922  -7.7906  -7.7906  -5.7442  -5.7442   4.7986   4.7986
     4.8012   4.8012  15.1984  15.1984

     occupation numbers 
     1.0000   1.0000   1.0000   1.0000   1.0000   1.0000   0.5038   0.5038
     0.4983   0.4983  -0.0000  -0.0000

          k =-0.0833-0.0481 0.0000 (  1493 PWs)   bands (ev):

   -14.5366 -14.4920  -2.8648  -2.3056   1.0826   1.0857   1.3928   1.3953
     8.1836  11.6852  13.1473  13.1722

     occupation numbers 
     1.0000   1.0000   1.0000   1.0000   1.0000   1.0000   1.0000   1.0000
    -0.0000  -0.0000  -0.0000  -0.0000

          k =-0.0833-0.0481-0.0741 (  1489 PWs)   bands (ev):

   -14.5301 -14.4986  -2.7891  -2.3945   1.0831   1.0853   1.3932   1.3949
     8.5443  10.8628  13.1581  13.1707

     occupation numbers 
     1.0000   1.0000   1.0000   1.0000   1.0000   1.0000   1.0000   1.0000
    -0.0000  -0.0000  -0.0000  -0.0000

          k =-0.0833-0.0481 0.1483 (  1486 PWs)   bands (ev):

   -14.5144 -14.5144  -2.5983  -2.5983   1.0842   1.0842   1.3940   1.3940
     9.5334   9.5334  13.1661  13.1661

     occupation numbers 
     1.0000   1.0000   1.0000   1.0000   1.0000   1.0000   1.0000   1.0000
    -0.0000  -0.0000  -0.0000  -0.0000

          k =-0.1667-0.0962 0.0000 (  1503 PWs)   bands (ev):

   -14.0479 -14.0049  -2.2774  -1.7333  -0.5514  -0.5447   0.6035   0.6072
     8.8215  12.2525  13.0731  13.1273

     occupation numbers 
     1.0000   1.0000   1.0000   1.0000   1.0000   1.0000   1.0000   1.0000
    -0.0000  -0.0000  -0.0000  -0.0000

          k =-0.1667-0.0962-0.0741 (  1496 PWs)   bands (ev):

   -14.0416 -14.0112  -2.2036  -1.8196  -0.5504  -0.5456   0.6041   0.6066
     9.1758  11.4480  13.0987  13.1245

     occupation numbers 
     1.0000   1.0000   1.0000   1.0000   1.0000   1.0000   1.0000   1.0000
    -0.0000  -0.0000  -0.0000  -0.0000

          k =-0.1667-0.0962 0.1483 (  1490 PWs)   bands (ev):

   -14.0265 -14.0265  -2.0178  -2.0178  -0.5480  -0.5480   0.6054   0.6054
    10.1469  10.1469  13.1150  13.1150

     occupation numbers 
     1.0000   1.0000   1.0000   1.0000   1.0000   1.0000   1.0000   1.0000
    -0.0000  -0.0000  -0.0000  -0.0000

          k =-0.2500-0.1443 0.0000 (  1497 PWs)   bands (ev):

   -13.2396 -13.1994  -2.6446  -2.6332  -1.3181  -0.8019  -0.2731  -0.2687
     9.8819  11.9191  12.0384  12.7848

     occupation numbers 
     1.0000   1.0000   1.0000   1.0000   1.0000   1.0000   1.0000   1.0000
    -0.0000  -0.0000  -0.0000  -0.0000

          k =-0.2500-0.1443-0.0741 (  1502 PWs)   bands (ev):

   -13.2338 -13.2054  -2.6430  -2.6349  -1.2478  -0.8835  -0.2725  -0.2693
    10.2188  11.8848  12.0074  12.5409

     occupation numbers 
     1.0000   1.0000   1.0000   1.0000   1.0000   1.0000   1.0000   1.0000
    -0.0000  -0.0000  -0.0000  -0.0000

          k =-0.2500-0.1443 0.1483 (  1508 PWs)   bands (ev):

   -13.2197 -13.2197  -2.6389  -2.6389  -1.0712  -1.0712  -0.2709  -0.2709
    11.1177  11.1177  12.0699  12.0699

     occupation numbers 
     1.0000   1.0000   1.0000   1.0000   1.0000   1.0000   1.0000   1.0000
    -0.0000  -0.0000  -0.0000  -0.0000

          k =-0.3333-0.1925 0.0000 (  1504 PWs)   bands (ev):

   -12.1242 -12.0878  -4.8421  -4.8255  -1.0042  -0.9993  -0.0336   0.4341
     9.5918   9.8077  11.3483  12.4532

     occupation numbers 
     1.0000   1.0000   1.0000   1.0000   1.0000   1.0000   1.0000   1.0000
    -0.0000  -0.0000  -0.0000  -0.0000

          k =-0.3333-0.1925-0.0741 (  1509 PWs)   bands (ev):

   -12.1190 -12.0932  -4.8397  -4.8280  -1.0035  -1.0000   0.0305   0.3608
     9.6144   9.7682  11.6826  12.4531

     occupation numbers 
     1.0000   1.0000   1.0000   1.0000   1.0000   1.0000   1.0000   1.0000
    -0.0000  -0.0000  -0.0000  -0.0000

          k =-0.3333-0.1925 0.1483 (  1502 PWs)   bands (ev):

   -12.1061 -12.1061  -4.8338  -4.8338  -1.0017  -1.0017   0.1912   0.1912
     9.6837   9.6837  12.3703  12.3704

     occupation numbers 
     1.0000   1.0000   1.0000   1.0000   1.0000   1.0000   1.0000   1.0000
    -0.0000  -0.0000  -0.0000  -0.0000

          k =-0.4167-0.2406 0.0000 (  1508 PWs)   bands (ev):

   -10.7329 -10.7014  -6.9355  -6.9143  -1.4757  -1.4705   1.4275   1.7950
     7.4426   7.7149  12.2030  12.2602

     occupation numbers 
     1.0000   1.0000   1.0000   1.0000   1.0000   1.0000   1.0000   1.0000
    -0.0000  -0.0000  -0.0000  -0.0000

          k =-0.4167-0.2406-0.0741 (  1510 PWs)   bands (ev):

   -10.7284 -10.7060  -6.9324  -6.9174  -1.4749  -1.4713   1.4791   1.7389
     7.4758   7.6684  12.2128  12.2535

     occupation numbers 
     1.0000   1.0000   1.0000   1.0000   1.0000   1.0000   1.0000   1.0000
    -0.0000  -0.0000  -0.0000  -0.0000

          k =-0.4167-0.2406 0.1483 (  1500 PWs)   bands (ev):

   -10.7172 -10.7172  -6.9249  -6.9249  -1.4731  -1.4731   1.6067   1.6067
     7.5655   7.5655  12.2345  12.2345

     occupation numbers 
     1.0000   1.0000   1.0000   1.0000   1.0000   1.0000   1.0000   1.0000
    -0.0000  -0.0000  -0.0000  -0.0000

          k = 0.5000 0.2887 0.0000 (  1508 PWs)   bands (ev):

    -9.4722  -9.4573  -8.4252  -8.4132  -1.6376  -1.6323   2.3568   2.5297
     6.3765   6.6144  12.1207  12.1868

     occupation numbers 
     1.0000   1.0000   1.0000   1.0000   1.0000   1.0000   1.0000   1.0000
    -0.0000  -0.0000  -0.0000  -0.0000

          k = 0.5000 0.2887-0.0741 (  1520 PWs)   bands (ev):

    -9.4700  -9.4595  -8.4236  -8.4151  -1.6368  -1.6331   2.3836   2.5060
     6.4012   6.5694  12.1304  12.1770

     occupation numbers 
     1.0000   1.0000   1.0000   1.0000   1.0000   1.0000   1.0000   1.0000
    -0.0000  -0.0000  -0.0000  -0.0000

          k = 0.5000 0.2887 0.1483 (  1520 PWs)   bands (ev):

    -9.4647  -9.4647  -8.4194  -8.4194  -1.6349  -1.6349   2.4463   2.4463
     6.4752   6.4752  12.1536  12.1536

     occupation numbers 
     1.0000   1.0000   1.0000   1.0000   1.0000   1.0000   1.0000   1.0000
    -0.0000  -0.0000  -0.0000  -0.0000

          k = 0.1667 0.0000 0.0000 (  1505 PWs)   bands (ev):

   -14.2105 -14.1670  -2.4723  -1.9230   0.0527   0.0558   0.7183   0.7204
     8.6092  12.0697  13.4245  13.4747

     occupation numbers 
     1.0000   1.0000   1.0000   1.0000   1.0000   1.0000   1.0000   1.0000
    -0.0000  -0.0000  -0.0000  -0.0000

          k = 0.1667 0.0000-0.0741 (  1502 PWs)   bands (ev):

   -14.2041 -14.1734  -2.3978  -2.0102   0.0531   0.0553   0.7186   0.7201
     8.9659  11.2571  13.4482  13.4720

     occupation numbers 
     1.0000   1.0000   1.0000   1.0000   1.0000   1.0000   1.0000   1.0000
    -0.0000  -0.0000  -0.0000  -0.0000

          k = 0.1667 0.0000 0.1483 (  1500 PWs)   bands (ev):

   -14.1889 -14.1889  -2.2103  -2.2103   0.0542   0.0542   0.7193   0.7193
     9.9439   9.9439  13.4639  13.4640

     occupation numbers 
     1.0000   1.0000   1.0000   1.0000   1.0000   1.0000   1.0000   1.0000
    -0.0000  -0.0000  -0.0000  -0.0000

          k =-0.1667-0.1925 0.0000 (  1500 PWs)   bands (ev):

   -13.5620 -13.5207  -1.6978  -1.6553  -1.6478  -1.1698  -0.2745  -0.2702
     9.4602  12.6988  12.8146  13.0112

     occupation numbers 
     1.0000   1.0000   1.0000   1.0000   1.0000   1.0000   1.0000   1.0000
    -0.0000  -0.0000  -0.0000  -0.0000

          k = 0.2500-0.0481 0.0000 (  1500 PWs)   bands (ev):

   -13.5620 -13.5207  -1.6979  -1.6541  -1.6466  -1.1699  -0.2758  -0.2715
     9.4602  12.6992  12.8152  13.0111

     occupation numbers 
     1.0000   1.0000   1.0000   1.0000   1.0000   1.0000   1.0000   1.0000
    -0.0000  -0.0000  -0.0000  -0.0000

          k =-0.1667-0.1925-0.0741 (  1503 PWs)   bands (ev):

   -13.5560 -13.5268  -1.6542  -1.6490  -1.6260  -1.2533  -0.2739  -0.2708
     9.8073  12.0161  12.8188  12.9008

     occupation numbers 
     1.0000   1.0000   1.0000   1.0000   1.0000   1.0000   1.0000   1.0000
    -0.0000  -0.0000  -0.0000  -0.0000

          k = 0.2500-0.0481-0.0741 (  1503 PWs)   bands (ev):

   -13.5560 -13.5268  -1.6530  -1.6478  -1.6260  -1.2534  -0.2752  -0.2721
     9.8073  12.0160  12.8194  12.9013

     occupation numbers 
     1.0000   1.0000   1.0000   1.0000   1.0000   1.0000   1.0000   1.0000
    -0.0000  -0.0000  -0.0000  -0.0000

          k =-0.1667-0.1925 0.1483 (  1506 PWs)   bands (ev):

   -13.5415 -13.5415  -1.6516  -1.6516  -1.4455  -1.4455  -0.2724  -0.2724
    10.7571  10.7571  12.8534  12.8534

     occupation numbers 
     1.0000   1.0000   1.0000   1.0000   1.0000   1.0000   1.0000   1.0000
    -0.0000  -0.0000  -0.0000  -0.0000

          k = 0.2500-0.0481 0.1483 (  1506 PWs)   bands (ev):

   -13.5415 -13.5415  -1.6504  -1.6504  -1.4456  -1.4456  -0.2736  -0.2736
    10.7570  10.7570  12.8539  12.8540

     occupation numbers 
     1.0000   1.0000   1.0000   1.0000   1.0000   1.0000   1.0000   1.0000
    -0.0000  -0.0000  -0.0000  -0.0000

          k =-0.2500-0.2406 0.0000 (  1514 PWs)   bands (ev):

   -12.6001 -12.5620  -3.7228  -3.7097  -1.1589  -1.1529  -0.5701  -0.0788
    10.6319  10.7298  10.7836  13.3084

     occupation numbers 
     1.0000   1.0000   1.0000   1.0000   1.0000   1.0000   1.0000   1.0000
    -0.0000  -0.0000  -0.0000  -0.0000

          k = 0.3333-0.0962 0.0000 (  1514 PWs)   bands (ev):

   -12.6001 -12.5620  -3.7224  -3.7093  -1.1594  -1.1534  -0.5702  -0.0789
    10.6323  10.7298  10.7842  13.3077

     occupation numbers 
     1.0000   1.0000   1.0000   1.0000   1.0000   1.0000   1.0000   1.0000
    -0.0000  -0.0000  -0.0000  -0.0000

          k =-0.2500-0.2406-0.0741 (  1506 PWs)   bands (ev):

   -12.5946 -12.5677  -3.7209  -3.7116  -1.1580  -1.1538  -0.5030  -0.1561
    10.6295  10.7497  11.0961  13.1317

     occupation numbers 
     1.0000   1.0000   1.0000   1.0000   1.0000   1.0000   1.0000   1.0000
    -0.0000  -0.0000  -0.0000  -0.0000

          k = 0.3333-0.0962-0.0741 (  1506 PWs)   bands (ev):

   -12.5945 -12.5676  -3.7205  -3.7112  -1.1585  -1.1543  -0.5031  -0.1562
    10.6300  10.7502  11.0961  13.1315

     occupation numbers 
     1.0000   1.0000   1.0000   1.0000   1.0000   1.0000   1.0000   1.0000
    -0.0000  -0.0000  -0.0000  -0.0000

          k =-0.2500-0.2406 0.1483 (  1504 PWs)   bands (ev):

   -12.5812 -12.5812  -3.7163  -3.7163  -1.1559  -1.1559  -0.3346  -0.3346
    10.6862  10.6862  12.0050  12.0050

     occupation numbers 
     1.0000   1.0000   1.0000   1.0000   1.0000   1.0000   1.0000   1.0000
    -0.0000  -0.0000  -0.0000  -0.0000

          k = 0.3333-0.0962 0.1483 (  1504 PWs)   bands (ev):

   -12.5811 -12.5811  -3.7158  -3.7158  -1.1564  -1.1564  -0.3347  -0.3347
    10.6867  10.6867  12.0049  12.0049

     occupation numbers 
     1.0000   1.0000   1.0000   1.0000   1.0000   1.0000   1.0000   1.0000
    -0.0000  -0.0000  -0.0000  -0.0000

          k =-0.3333-0.2887 0.0000 (  1522 PWs)   bands (ev):

   -11.3436 -11.3098  -5.8394  -5.8209  -1.7923  -1.7855   0.8331   1.2582
     8.3994   8.6307  12.3877  13.0271

     occupation numbers 
     1.0000   1.0000   1.0000   1.0000   1.0000   1.0000   1.0000   1.0000
    -0.0000  -0.0000  -0.0000  -0.0000

          k = 0.4167-0.1443 0.0000 (  1522 PWs)   bands (ev):

   -11.3435 -11.3098  -5.8393  -5.8208  -1.7925  -1.7857   0.8329   1.2581
     8.3997   8.6311  12.3876  13.0268

     occupation numbers 
     1.0000   1.0000   1.0000   1.0000   1.0000   1.0000   1.0000   1.0000
    -0.0000  -0.0000  -0.0000  -0.0000

          k =-0.3333-0.2887-0.0741 (  1517 PWs)   bands (ev):

   -11.3387 -11.3148  -5.8367  -5.8236  -1.7913  -1.7865   0.8919   1.1922
     8.4284   8.5922  12.6784  13.0328

     occupation numbers 
     1.0000   1.0000   1.0000   1.0000   1.0000   1.0000   1.0000   1.0000
    -0.0000  -0.0000  -0.0000  -0.0000

          k = 0.4167-0.1443-0.0741 (  1517 PWs)   bands (ev):

   -11.3386 -11.3147  -5.8366  -5.8235  -1.7915  -1.7867   0.8918   1.1921
     8.4288   8.5926  12.6782  13.0325

     occupation numbers 
     1.0000   1.0000   1.0000   1.0000   1.0000   1.0000   1.0000   1.0000
    -0.0000  -0.0000  -0.0000  -0.0000

          k =-0.3333-0.2887 0.1483 (  1514 PWs)   bands (ev):

   -11.3267 -11.3267  -5.8302  -5.8302  -1.7889  -1.7889   1.0385   1.0385
     8.5057   8.5057  13.0188  13.0189

     occupation numbers 
     1.0000   1.0000   1.0000   1.0000   1.0000   1.0000   1.0000   1.0000
    -0.0000  -0.0000  -0.0000  -0.0000

          k = 0.4167-0.1443 0.1483 (  1514 PWs)   bands (ev):

   -11.3267 -11.3267  -5.8300  -5.8300  -1.7891  -1.7891   1.0383   1.0383
     8.5061   8.5061  13.0184  13.0184

     occupation numbers 
     1.0000   1.0000   1.0000   1.0000   1.0000   1.0000   1.0000   1.0000
    -0.0000  -0.0000  -0.0000  -0.0000

          k =-0.4167-0.3368 0.0000 (  1524 PWs)   bands (ev):

    -9.8694  -9.8423  -7.7721  -7.7508  -2.1200  -2.1128   2.2079   2.4737
     6.6444   6.8835  12.8507  12.9256

     occupation numbers 
     1.0000   1.0000   1.0000   1.0000   1.0000   1.0000   1.0000   1.0000
    -0.0000  -0.0000  -0.0000  -0.0000

          k = 0.5000-0.1925 0.0000 (  1524 PWs)   bands (ev):

    -9.8693  -9.8423  -7.7721  -7.7508  -2.1200  -2.1129   2.2078   2.4737
     6.6446   6.8837  12.8506  12.9255

     occupation numbers 
     1.0000   1.0000   1.0000   1.0000   1.0000   1.0000   1.0000   1.0000
    -0.0000  -0.0000  -0.0000  -0.0000

          k =-0.4167-0.3368-0.0741 (  1515 PWs)   bands (ev):

    -9.8654  -9.8462  -7.7690  -7.7539  -2.1189  -2.1139   2.2467   2.4348
     6.6719   6.8410  12.8617  12.9147

     occupation numbers 
     1.0000   1.0000   1.0000   1.0000   1.0000   1.0000   1.0000   1.0000
    -0.0000  -0.0000  -0.0000  -0.0000

          k = 0.5000-0.1925-0.0741 (  1515 PWs)   bands (ev):

    -9.8654  -9.8462  -7.7690  -7.7539  -2.1190  -2.1139   2.2466   2.4347
     6.6721   6.8412  12.8616  12.9146

     occupation numbers 
     1.0000   1.0000   1.0000   1.0000   1.0000   1.0000   1.0000   1.0000
    -0.0000  -0.0000  -0.0000  -0.0000

          k =-0.4167-0.3368 0.1483 (  1524 PWs)   bands (ev):

    -9.8559  -9.8559  -7.7615  -7.7615  -2.1164  -2.1164   2.3407   2.3407
     6.7490   6.7490  12.8881  12.8881

     occupation numbers 
     1.0000   1.0000   1.0000   1.0000   1.0000   1.0000   1.0000   1.0000
    -0.0000  -0.0000  -0.0000  -0.0000

          k = 0.5000-0.1925 0.1483 (  1524 PWs)   bands (ev):

    -9.8559  -9.8559  -7.7615  -7.7615  -2.1164  -2.1164   2.3406   2.3406
     6.7492   6.7492  12.8880  12.8880

     occupation numbers 
     1.0000   1.0000   1.0000   1.0000   1.0000   1.0000   1.0000   1.0000
    -0.0000  -0.0000  -0.0000  -0.0000

          k = 0.3333 0.0000 0.0000 (  1509 PWs)   bands (ev):

   -12.7597 -12.7212  -2.9807  -2.9747  -1.6304  -1.6260  -0.7516  -0.2528
    10.5221  11.0969  11.1973  13.6814

     occupation numbers 
     1.0000   1.0000   1.0000   1.0000   1.0000   1.0000   1.0000   1.0000
    -0.0000  -0.0000  -0.0000  -0.0000

          k = 0.3333 0.0000-0.0741 (  1516 PWs)   bands (ev):

   -12.7541 -12.7269  -2.9799  -2.9756  -1.6298  -1.6266  -0.6835  -0.3314
    10.8548  11.1115  11.1827  12.9632

     occupation numbers 
     1.0000   1.0000   1.0000   1.0000   1.0000   1.0000   1.0000   1.0000
    -0.0000  -0.0000  -0.0000  -0.0000

          k = 0.3333 0.0000 0.1483 (  1518 PWs)   bands (ev):

   -12.7406 -12.7406  -2.9777  -2.9777  -1.6282  -1.6282  -0.5127  -0.5127
    11.1467  11.1467  11.7642  11.7642

     occupation numbers 
     1.0000   1.0000   1.0000   1.0000   1.0000   1.0000   1.0000   1.0000
    -0.0000  -0.0000  -0.0000  -0.0000

          k =-0.2500-0.3368 0.0000 (  1517 PWs)   bands (ev):

   -11.6552 -11.6204  -4.7056  -4.6930  -2.6833  -2.6751   0.5180   0.9685
     9.1405   9.2839  11.9938  14.9246

     occupation numbers 
     1.0000   1.0000   1.0000   1.0000   1.0000   1.0000   1.0000   1.0000
    -0.0000  -0.0000  -0.0000  -0.0000

          k = 0.4167-0.0481 0.0000 (  1517 PWs)   bands (ev):

   -11.6552 -11.6203  -4.7047  -4.6921  -2.6843  -2.6761   0.5177   0.9682
     9.1414   9.2848  11.9938  14.9283

     occupation numbers 
     1.0000   1.0000   1.0000   1.0000   1.0000   1.0000   1.0000   1.0000
    -0.0000  -0.0000  -0.0000  -0.0000

          k =-0.2500-0.3368-0.0741 (  1515 PWs)   bands (ev):

   -11.6502 -11.6255  -4.7038  -4.6948  -2.6821  -2.6763   0.5800   0.8981
     9.1603   9.2619  12.3003  14.1626

     occupation numbers 
     1.0000   1.0000   1.0000   1.0000   1.0000   1.0000   1.0000   1.0000
    -0.0000  -0.0000  -0.0000  -0.0000

          k = 0.4167-0.0481-0.0741 (  1515 PWs)   bands (ev):

   -11.6502 -11.6255  -4.7029  -4.6940  -2.6831  -2.6773   0.5797   0.8979
     9.1612   9.2629  12.3003  14.1622

     occupation numbers 
     1.0000   1.0000   1.0000   1.0000   1.0000   1.0000   1.0000   1.0000
    -0.0000  -0.0000  -0.0000  -0.0000

          k =-0.2500-0.3368 0.1483 (  1524 PWs)   bands (ev):

   -11.6379 -11.6379  -4.6993  -4.6993  -2.6792  -2.6792   0.7349   0.7349
     9.2101   9.2101  13.1241  13.1242

     occupation numbers 
     1.0000   1.0000   1.0000   1.0000   1.0000   1.0000   1.0000   1.0000
    -0.0000  -0.0000  -0.0000  -0.0000

          k = 0.4167-0.0481 0.1483 (  1524 PWs)   bands (ev):

   -11.6379 -11.6379  -4.6984  -4.6984  -2.6802  -2.6802   0.7346   0.7346
     9.2110   9.2110  13.1239  13.1239

     occupation numbers 
     1.0000   1.0000   1.0000   1.0000   1.0000   1.0000   1.0000   1.0000
    -0.0000  -0.0000  -0.0000  -0.0000

          k =-0.3333-0.3849 0.0000 (  1522 PWs)   bands (ev):

   -10.2839 -10.2538  -6.6098  -6.5909  -3.2595  -3.2490   1.9798   2.3383
     7.2181   7.4118  13.8408  14.7155

     occupation numbers 
     1.0000   1.0000   1.0000   1.0000   1.0000   1.0000   1.0000   1.0000
    -0.0000  -0.0000  -0.0000  -0.0000

          k = 0.5000-0.0962 0.0000 (  1522 PWs)   bands (ev):

   -10.2839 -10.2538  -6.6095  -6.5907  -3.2598  -3.2494   1.9795   2.3380
     7.2187   7.4125  13.8406  14.7149

     occupation numbers 
     1.0000   1.0000   1.0000   1.0000   1.0000   1.0000   1.0000   1.0000
    -0.0000  -0.0000  -0.0000  -0.0000

          k =-0.3333-0.3849-0.0741 (  1525 PWs)   bands (ev):

   -10.2795 -10.2583  -6.6070  -6.5937  -3.2580  -3.2506   2.0301   2.2835
     7.2436   7.3808  14.0849  14.7222

     occupation numbers 
     1.0000   1.0000   1.0000   1.0000   1.0000   1.0000   1.0000   1.0000
    -0.0000  -0.0000  -0.0000  -0.0000

          k = 0.5000-0.0962-0.0741 (  1525 PWs)   bands (ev):

   -10.2795 -10.2582  -6.6068  -6.5934  -3.2583  -3.2509   2.0298   2.2832
     7.2442   7.3815  14.0848  14.7218

     occupation numbers 
     1.0000   1.0000   1.0000   1.0000   1.0000   1.0000   1.0000   1.0000
    -0.0000  -0.0000  -0.0000  -0.0000

          k =-0.3333-0.3849 0.1483 (  1520 PWs)   bands (ev):

   -10.2689 -10.2689  -6.6004  -6.6004  -3.2543  -3.2543   2.1546   2.1546
     7.3095   7.3095  14.6249  14.6249

     occupation numbers 
     1.0000   1.0000   1.0000   1.0000   1.0000   1.0000   1.0000   1.0000
    -0.0000  -0.0000  -0.0000  -0.0000

          k = 0.5000-0.0962 0.1483 (  1520 PWs)   bands (ev):

   -10.2689 -10.2689  -6.6001  -6.6001  -3.2546  -3.2546   2.1543   2.1543
     7.3101   7.3101  14.6241  14.6245

     occupation numbers 
     1.0000   1.0000   1.0000   1.0000   1.0000   1.0000   1.0000   1.0000
    -0.0000  -0.0000  -0.0000  -0.0000

          k =-0.4167-0.4330 0.0000 (  1527 PWs)   bands (ev):

    -9.0522  -9.0380  -8.0289  -8.0184  -3.4444  -3.4335   2.9539   3.1232
     6.1963   6.3270  14.6163  14.7553

     occupation numbers 
     1.0000   1.0000   1.0000   1.0000   1.0000   1.0000   1.0000   1.0000
    -0.0000  -0.0000  -0.0000  -0.0000

          k =-0.4167-0.4330-0.0741 (  1526 PWs)   bands (ev):

    -9.0500  -9.0400  -8.0275  -8.0200  -3.4428  -3.4350   2.9804   3.1003
     6.2085   6.3014  14.6344  14.7320

     occupation numbers 
     1.0000   1.0000   1.0000   1.0000   1.0000   1.0000   1.0000   1.0000
    -0.0000  -0.0000  -0.0000  -0.0000

          k =-0.4167-0.4330 0.1483 (  1532 PWs)   bands (ev):

    -9.0450  -9.0450  -8.0238  -8.0238  -3.4389  -3.4389   3.0421   3.0421
     6.2483   6.2483  14.6802  14.6802

     occupation numbers 
     1.0000   1.0000   1.0000   1.0000   1.0000   1.0000   1.0000   1.0000
    -0.0000  -0.0000  -0.0000  -0.0000

          k = 0.5000-0.0000 0.0000 (  1525 PWs)   bands (ev):

   -10.4310 -10.4002  -5.7372  -5.7280  -4.1576  -4.1506   1.8832   2.2704
     7.5377   7.6740  13.6410  15.3834

     occupation numbers 
     1.0000   1.0000   1.0000   1.0000   1.0000   1.0000   1.0000   1.0000
    -0.0000  -0.0000  -0.0000  -0.0000

          k = 0.5000-0.0000-0.0741 (  1530 PWs)   bands (ev):

   -10.4265 -10.4047  -5.7358  -5.7293  -4.1566  -4.1516   1.9370   2.2106
     7.5576   7.6539  13.8706  15.0822

     occupation numbers 
     1.0000   1.0000   1.0000   1.0000   1.0000   1.0000   1.0000   1.0000
    -0.0000  -0.0000  -0.0000  -0.0000

          k = 0.5000-0.0000 0.1483 (  1534 PWs)   bands (ev):

   -10.4157 -10.4157  -5.7326  -5.7326  -4.1542  -4.1542   2.0709   2.0709
     7.6056   7.6056  14.4482  14.4482

     occupation numbers 
     1.0000   1.0000   1.0000   1.0000   1.0000   1.0000   1.0000   1.0000
    -0.0000  -0.0000  -0.0000  -0.0000

          k =-0.3333-0.4811 0.0000 (  1531 PWs)   bands (ev):

    -9.0137  -8.9894  -7.1543  -7.1386  -4.8644  -4.8527   3.3187   3.5828
     6.0313   6.1614  15.5761  15.6360

     occupation numbers 
     1.0000   1.0000   1.0000   1.0000   1.0000   1.0000   1.0000   1.0001
    -0.0001  -0.0000  -0.0000  -0.0000

          k = 0.5833-0.0481 0.0000 (  1531 PWs)   bands (ev):

    -9.0138  -8.9895  -7.1538  -7.1381  -4.8648  -4.8531   3.3182   3.5822
     6.0321   6.1622  15.5760  15.6353

     occupation numbers 
     1.0000   1.0000   1.0000   1.0000   1.0000   1.0000   1.0000   1.0001
    -0.0001  -0.0000  -0.0000  -0.0000

          k =-0.3333-0.4811-0.0741 (  1531 PWs)   bands (ev):

    -9.0101  -8.9930  -7.1520  -7.1409  -4.8627  -4.8544   3.3570   3.5439
     6.0484   6.1404  15.4052  15.4976

     occupation numbers 
     1.0000   1.0000   1.0000   1.0000   1.0000   1.0000   1.0000   1.0001
    -0.0001  -0.0000  -0.0000  -0.0000

          k = 0.5833-0.0481-0.0741 (  1531 PWs)   bands (ev):

    -9.0102  -8.9931  -7.1515  -7.1404  -4.8631  -4.8549   3.3565   3.5433
     6.0491   6.1413  15.4051  15.4969

     occupation numbers 
     1.0000   1.0000   1.0000   1.0000   1.0000   1.0000   1.0000   1.0001
    -0.0001  -0.0000  -0.0000  -0.0000

          k =-0.3333-0.4811 0.1483 (  1544 PWs)   bands (ev):

    -9.0016  -9.0016  -7.1465  -7.1465  -4.8586  -4.8586   3.4501   3.4501
     6.0924   6.0924  15.3407  15.3407

     occupation numbers 
     1.0000   1.0000   1.0000   1.0000   1.0000   1.0000   1.0000   1.0000
    -0.0000  -0.0000  -0.0000  -0.0000

          k = 0.5833-0.0481 0.1483 (  1544 PWs)   bands (ev):

    -9.0017  -9.0017  -7.1460  -7.1460  -4.8590  -4.8590   3.4496   3.4496
     6.0932   6.0932  15.3403  15.3404

     occupation numbers 
     1.0000   1.0000   1.0000   1.0000   1.0000   1.0000   1.0000   1.0000
    -0.0000  -0.0000  -0.0000  -0.0000

     the Fermi energy is     4.8004 ev

!    total energy              =     -49.71387912 Ry
     estimated scf accuracy    <          2.0E-10 Ry
     smearing contrib. (-TS)   =      -0.00041929 Ry
     internal energy E=F+TS    =     -49.71345983 Ry

     The total energy is F=E-TS. E is the sum of the following terms:
     one-electron contribution =     -29.91197134 Ry
     hartree contribution      =      21.73968607 Ry
     xc contribution           =     -18.53787203 Ry
     ewald contribution        =     -23.00330253 Ry

     convergence has been achieved in   7 iterations

     Forces acting on atoms (cartesian axes, Ry/au):

     atom    1 type  1   force =     0.00000000   -0.00027620    0.00000000
     atom    2 type  1   force =     0.00000000    0.00027620    0.00000000
     atom    3 type  1   force =     0.00000000    0.00027688    0.00000000
     atom    4 type  1   force =    -0.00000000   -0.00027688    0.00000000
     The non-local contrib.  to forces
     atom    1 type  1   force =    -0.00000000   -0.00025749    0.00000000
     atom    2 type  1   force =     0.00000000    0.00025749    0.00000000
     atom    3 type  1   force =     0.00000000    0.00025775    0.00000000
     atom    4 type  1   force =     0.00000000   -0.00025775    0.00000000
     The ionic contribution  to forces
     atom    1 type  1   force =    -0.00000000   -0.00098176   -0.00000000
     atom    2 type  1   force =    -0.00000000    0.00098176    0.00000000
     atom    3 type  1   force =    -0.00000000    0.00098202   -0.00000000
     atom    4 type  1   force =     0.00000000   -0.00098202    0.00000000
     The local contribution  to forces
     atom    1 type  1   force =    -0.00000000    0.00095453    0.00000000
     atom    2 type  1   force =     0.00000000   -0.00095453    0.00000000
     atom    3 type  1   force =    -0.00000000   -0.00095512    0.00000000
     atom    4 type  1   force =    -0.00000000    0.00095512    0.00000000
     The core correction contribution to forces
     atom    1 type  1   force =     0.00000000    0.00000851   -0.00000000
     atom    2 type  1   force =    -0.00000000   -0.00000851   -0.00000000
     atom    3 type  1   force =     0.00000000   -0.00000777   -0.00000000
     atom    4 type  1   force =     0.00000000    0.00000777   -0.00000000
     The Hubbard contrib.    to forces
     atom    1 type  1   force =     0.00000000    0.00000000    0.00000000
     atom    2 type  1   force =     0.00000000    0.00000000    0.00000000
     atom    3 type  1   force =     0.00000000    0.00000000    0.00000000
     atom    4 type  1   force =     0.00000000    0.00000000    0.00000000
     The SCF correction term to forces
     atom    1 type  1   force =     0.00000000    0.00000001   -0.00000000
     atom    2 type  1   force =    -0.00000000   -0.00000001   -0.00000000
     atom    3 type  1   force =    -0.00000000   -0.00000000   -0.00000000
     atom    4 type  1   force =    -0.00000000    0.00000000   -0.00000000

     Total force =     0.000553     Total SCF correction =     0.000000


     Computing stress (Cartesian axis) and pressure

          total   stress  (Ry/bohr**3)                   (kbar)     P=      -12.09
  -0.00012353   0.00000000   0.00000000          -18.17        0.00        0.00
   0.00000000  -0.00012242   0.00000000            0.00      -18.01        0.00
   0.00000000   0.00000000  -0.00000058            0.00        0.00       -0.09

     kinetic stress (kbar)   9267.04      0.00      0.00
                                0.00   9266.30      0.00
                                0.00      0.00  10528.27

     local   stress (kbar) -26774.19     -0.00      0.00
                               -0.00 -26778.61     -0.00
                                0.00     -0.00  27091.40

     nonloc. stress (kbar)   1801.58      0.00      0.00
                                0.00   1801.73      0.00
                                0.00      0.00   1655.18

     hartree stress (kbar)   9939.44     -0.00     -0.00
                               -0.00   9940.07     -0.00
                               -0.00     -0.00  -9112.01

     exc-cor stress (kbar)   -164.92      0.00      0.00
                                0.00   -164.89     -0.00
                                0.00     -0.00   -269.55

     corecor stress (kbar)  -2235.97     -0.00     -0.00
                               -0.00  -2235.99     -0.00
                               -0.00     -0.00  -2197.78

     ewald   stress (kbar)   8148.85     -0.00     -0.00
                               -0.00   8153.39      0.00
                               -0.00      0.00 -27695.59

     hubbard stress (kbar)      0.00      0.00      0.00
                                0.00      0.00      0.00
                                0.00      0.00      0.00

     DFT-D   stress (kbar)      0.00      0.00      0.00
                                0.00      0.00      0.00
                                0.00      0.00      0.00

     XDM     stress (kbar)      0.00      0.00      0.00
                                0.00      0.00      0.00
                                0.00      0.00      0.00

     dft-nl  stress (kbar)      0.00      0.00      0.00
                                0.00      0.00      0.00
                                0.00      0.00      0.00

     TS-vdW  stress (kbar)      0.00      0.00      0.00
                                0.00      0.00      0.00
                                0.00      0.00      0.00



     Writing output data file ./tmp/C.save/

     init_run     :      5.74s CPU      6.20s WALL (       1 calls)
     electrons    :    115.65s CPU    121.55s WALL (       1 calls)
     forces       :      1.92s CPU      1.97s WALL (       1 calls)
     stress       :      6.17s CPU      6.27s WALL (       1 calls)

     Called by init_run:
     wfcinit      :      4.34s CPU      4.62s WALL (       1 calls)
     wfcinit:atom :      0.13s CPU      0.14s WALL (     129 calls)
     wfcinit:wfcr :      3.29s CPU      3.51s WALL (     129 calls)
     potinit      :      0.31s CPU      0.34s WALL (       1 calls)
     hinit0       :      0.94s CPU      1.05s WALL (       1 calls)

     Called by electrons:
     c_bands      :     96.88s CPU    102.02s WALL (       7 calls)
     sum_band     :     16.02s CPU     16.74s WALL (       7 calls)
     v_of_rho     :      2.00s CPU      2.04s WALL (       8 calls)
     v_h          :      0.11s CPU      0.12s WALL (       8 calls)
     v_xc         :      2.30s CPU      2.35s WALL (      10 calls)
     newd         :      0.62s CPU      0.66s WALL (       8 calls)
     mix_rho      :      0.22s CPU      0.22s WALL (       7 calls)

     Called by c_bands:
     init_us_2    :      3.80s CPU      4.01s WALL (    2193 calls)
     cegterg      :     91.16s CPU     95.95s WALL (     903 calls)

     Called by sum_band:
     sum_band:wei :      0.06s CPU      0.07s WALL (       7 calls)
     sum_band:loo :     14.78s CPU     15.44s WALL (       7 calls)
     sum_band:buf :      0.17s CPU      0.18s WALL (     903 calls)
     sum_band:ini :      1.57s CPU      1.65s WALL (     903 calls)
     sum_band:cal :      1.37s CPU      1.43s WALL (     903 calls)
     sum_band:bec :      0.05s CPU      0.03s WALL (     903 calls)
     addusdens    :      0.60s CPU      0.64s WALL (       7 calls)
     addusd:skk   :      0.01s CPU      0.01s WALL (       7 calls)
     addusd:dgemm :      0.13s CPU      0.15s WALL (       7 calls)
     addusd:qvan2 :      0.30s CPU      0.30s WALL (       7 calls)

     Called by *egterg:
     cdiaghg      :      3.35s CPU      3.59s WALL (    3870 calls)
     cegterg:over :      4.30s CPU      4.61s WALL (    2967 calls)
     cegterg:upda :      2.93s CPU      3.09s WALL (    2967 calls)
     cegterg:last :      4.84s CPU      5.10s WALL (    1954 calls)
     h_psi        :     71.27s CPU     74.97s WALL (    3999 calls)
     s_psi        :      3.89s CPU      4.14s WALL (    3999 calls)
     g_psi        :      0.78s CPU      0.83s WALL (    2967 calls)

     Called by h_psi:
     h_psi:calbec :      4.50s CPU      4.69s WALL (    3999 calls)
     vloc_psi     :     61.40s CPU     64.56s WALL (    3999 calls)
     add_vuspsi   :      4.51s CPU      4.77s WALL (    3999 calls)

     General routines
     calbec       :      6.44s CPU      6.74s WALL (    5547 calls)
     fft          :      1.36s CPU      1.40s WALL (     127 calls)
     ffts         :      0.02s CPU      0.02s WALL (      15 calls)
     fftw         :     57.73s CPU     60.80s WALL (   73120 calls)
     interpolate  :      0.13s CPU      0.13s WALL (       8 calls)

     Parallel routines

     PWSCF        :   2m10.00s CPU   2m16.88s WALL


   This run was terminated on:  18: 0: 7  23May2022            

=------------------------------------------------------------------------------=
   JOB DONE.
=------------------------------------------------------------------------------=
