
     Program PWSCF v.6.7MaX starts on 23May2022 at 17:47:17 

     This program is part of the open-source Quantum ESPRESSO suite
     for quantum simulation of materials; please cite
         "P. Giannozzi et al., J. Phys.:Condens. Matter 21 395502 (2009);
         "P. Giannozzi et al., J. Phys.:Condens. Matter 29 465901 (2017);
          URL http://www.quantum-espresso.org", 
     in publications or presentations arising from this work. More details at
     http://www.quantum-espresso.org/quote

     Parallel version (MPI), running on     1 processors

     MPI processes distributed on     1 nodes
     Waiting for input...
     Reading input from standard input

     Current dimensions of program PWSCF are:
     Max number of different atomic species (ntypx) = 10
     Max number of k-points (npk) =  40000
     Max angular momentum in pseudopotentials (lmaxx) =  3

     Subspace diagonalization in iterative solution of the eigenvalue problem:
     a serial algorithm will be used


     G-vector sticks info
     --------------------
     sticks:   dense  smooth     PW     G-vecs:    dense   smooth      PW
     Sum         547     265     85                34301    12031    2223



     bravais-lattice index     =            4
     lattice parameter (alat)  =       4.6676  a.u.
     unit-cell volume          =     297.0066 (a.u.)^3
     number of atoms/cell      =            4
     number of atomic types    =            1
     number of electrons       =        16.00
     number of Kohn-Sham states=           12
     kinetic-energy cutoff     =      45.0000  Ry
     charge density cutoff     =     360.0000  Ry
     scf convergence threshold =      1.0E-09
     mixing beta               =       0.7000
     number of iterations used =            8  plain     mixing
     Exchange-correlation= PBE
                           (   1   4   3   4   0   0   0)

     celldm(1)=   4.667624  celldm(2)=   1.000000  celldm(3)=   3.372470
     celldm(4)=   0.000000  celldm(5)=   0.000000  celldm(6)=   0.000000

     crystal axes: (cart. coord. in units of alat)
               a(1) = (   1.000000   0.000000   0.000000 )  
               a(2) = (  -0.500000   0.866025   0.000000 )  
               a(3) = (   0.000000   0.000000   3.372470 )  

     reciprocal axes: (cart. coord. in units 2 pi/alat)
               b(1) = (  1.000000  0.577350 -0.000000 )  
               b(2) = (  0.000000  1.154701  0.000000 )  
               b(3) = (  0.000000 -0.000000  0.296519 )  


     PseudoPot. # 1 for C  read from file:
     /home/max/Desktop/graphite_DFT/Pseudo/C.pbe-n-rrkjus_psl.1.0.0.UPF
     MD5 check sum: 1fdd950c42eb37d8afe3dd2f8d12311e
     Pseudo is Ultrasoft + core correction, Zval =  4.0
     Generated using &quot;atomic&quot; code by A. Dal Corso  v.6.3MaX
     Using radial grid of 1073 points,  4 beta functions with: 
                l(1) =   0
                l(2) =   0
                l(3) =   1
                l(4) =   1
     Q(r) pseudized with 0 coefficients 


     atomic species   valence    mass     pseudopotential
        C              4.00    12.01100     C ( 1.00)

      8 Sym. Ops., with inversion, found ( 4 have fractional translation)


                                    s                        frac. trans.

      isym =  1     identity                                     

 cryst.   s( 1) = (     1          0          0      )
                  (     0          1          0      )
                  (     0          0          1      )

 cart.    s( 1) = (  1.0000000  0.0000000  0.0000000 )
                  (  0.0000000  1.0000000  0.0000000 )
                  (  0.0000000  0.0000000  1.0000000 )


      isym =  2     180 deg rotation - cart. axis [0,0,1]        

 cryst.   s( 2) = (    -1          0          0      )    f =(  0.0000000 )
                  (     0         -1          0      )       (  0.0000000 )
                  (     0          0          1      )       ( -0.5000000 )

 cart.    s( 2) = ( -1.0000000  0.0000000  0.0000000 )    f =(  0.0000000 )
                  (  0.0000000 -1.0000000  0.0000000 )       (  0.0000000 )
                  (  0.0000000  0.0000000  1.0000000 )       ( -1.6862348 )


      isym =  3     180 deg rotation - cart. axis [0,1,0]        

 cryst.   s( 3) = (    -1          0          0      )    f =(  0.0000000 )
                  (     1          1          0      )       (  0.0000000 )
                  (     0          0         -1      )       (  0.5000000 )

 cart.    s( 3) = ( -1.0000000  0.0000000  0.0000000 )    f =(  0.0000000 )
                  (  0.0000000  1.0000000  0.0000000 )       (  0.0000000 )
                  (  0.0000000  0.0000000 -1.0000000 )       (  1.6862348 )


      isym =  4     180 deg rotation - cart. axis [1,0,0]        

 cryst.   s( 4) = (     1          0          0      )
                  (    -1         -1          0      )
                  (     0          0         -1      )

 cart.    s( 4) = (  1.0000000  0.0000000  0.0000000 )
                  (  0.0000000 -1.0000000  0.0000000 )
                  (  0.0000000  0.0000000 -1.0000000 )


      isym =  5     inversion                                    

 cryst.   s( 5) = (    -1          0          0      )
                  (     0         -1          0      )
                  (     0          0         -1      )

 cart.    s( 5) = ( -1.0000000  0.0000000  0.0000000 )
                  (  0.0000000 -1.0000000  0.0000000 )
                  (  0.0000000  0.0000000 -1.0000000 )


      isym =  6     inv. 180 deg rotation - cart. axis [0,0,1]   

 cryst.   s( 6) = (     1          0          0      )    f =(  0.0000000 )
                  (     0          1          0      )       (  0.0000000 )
                  (     0          0         -1      )       (  0.5000000 )

 cart.    s( 6) = (  1.0000000  0.0000000  0.0000000 )    f =(  0.0000000 )
                  (  0.0000000  1.0000000  0.0000000 )       (  0.0000000 )
                  (  0.0000000  0.0000000 -1.0000000 )       (  1.6862348 )


      isym =  7     inv. 180 deg rotation - cart. axis [0,1,0]   

 cryst.   s( 7) = (     1          0          0      )    f =(  0.0000000 )
                  (    -1         -1          0      )       (  0.0000000 )
                  (     0          0          1      )       ( -0.5000000 )

 cart.    s( 7) = (  1.0000000  0.0000000  0.0000000 )    f =(  0.0000000 )
                  (  0.0000000 -1.0000000  0.0000000 )       (  0.0000000 )
                  (  0.0000000  0.0000000  1.0000000 )       ( -1.6862348 )


      isym =  8     inv. 180 deg rotation - cart. axis [1,0,0]   

 cryst.   s( 8) = (    -1          0          0      )
                  (     1          1          0      )
                  (     0          0          1      )

 cart.    s( 8) = ( -1.0000000  0.0000000  0.0000000 )
                  (  0.0000000  1.0000000  0.0000000 )
                  (  0.0000000  0.0000000  1.0000000 )


     point group D_2h (mmm) 
     there are  8 classes
     the character table:

       E     C2    C2'   C2''  i     s_v   s_v'  s_v''
A_g    1.00  1.00  1.00  1.00  1.00  1.00  1.00  1.00
B_1g   1.00  1.00 -1.00 -1.00  1.00  1.00 -1.00 -1.00
B_2g   1.00 -1.00  1.00 -1.00  1.00 -1.00  1.00 -1.00
B_3g   1.00 -1.00 -1.00  1.00  1.00 -1.00 -1.00  1.00
A_u    1.00  1.00  1.00  1.00 -1.00 -1.00 -1.00 -1.00
B_1u   1.00  1.00 -1.00 -1.00 -1.00 -1.00  1.00  1.00
B_2u   1.00 -1.00  1.00 -1.00 -1.00  1.00 -1.00  1.00
B_3u   1.00 -1.00 -1.00  1.00 -1.00  1.00  1.00 -1.00

     the symmetry operations in each class and the name of the first element:

     E        1
          identity                                               
     C2       2
          180 deg rotation - cart. axis [0,0,1]                  
     C2'      4
          180 deg rotation - cart. axis [1,0,0]                  
     C2''     3
          180 deg rotation - cart. axis [0,1,0]                  
     i        5
          inversion                                              
     s_v      6
          inv. 180 deg rotation - cart. axis [0,0,1]             
     s_v'     8
          inv. 180 deg rotation - cart. axis [1,0,0]             
     s_v''    7
          inv. 180 deg rotation - cart. axis [0,1,0]             

   Cartesian axes

     site n.     atom                  positions (alat units)
         1           C   tau(   1) = (   0.0000000   0.0000000   0.8431174  )
         2           C   tau(   2) = (   0.0000000   0.0000000   2.5293522  )
         3           C   tau(   3) = (   0.0000000   0.5772925   0.8431174  )
         4           C   tau(   4) = (   0.5000000   0.2887329   2.5293522  )

   Crystallographic axes

     site n.     atom                  positions (cryst. coord.)
         1           C   tau(   1) = (  0.0000000  0.0000000  0.2500000  )
         2           C   tau(   2) = (  0.0000000  0.0000000  0.7500000  )
         3           C   tau(   3) = (  0.3333000  0.6666000  0.2500000  )
         4           C   tau(   4) = (  0.6667000  0.3334000  0.7500000  )

     number of k points=   129  Methfessel-Paxton smearing, width (Ry)=  0.5000
                       cart. coord. in units 2pi/alat
        k(    1) = (   0.0000000   0.0000000   0.0000000), wk =   0.0034722
        k(    2) = (   0.0000000   0.0000000   0.0741297), wk =   0.0069444
        k(    3) = (   0.0000000   0.0000000  -0.1482593), wk =   0.0034722
        k(    4) = (   0.0000000   0.0962250   0.0000000), wk =   0.0069444
        k(    5) = (   0.0000000   0.0962250   0.0741297), wk =   0.0138889
        k(    6) = (   0.0000000   0.0962250  -0.1482593), wk =   0.0069444
        k(    7) = (   0.0000000   0.1924501   0.0000000), wk =   0.0069444
        k(    8) = (   0.0000000   0.1924501   0.0741297), wk =   0.0138889
        k(    9) = (   0.0000000   0.1924501  -0.1482593), wk =   0.0069444
        k(   10) = (   0.0000000   0.2886751   0.0000000), wk =   0.0069444
        k(   11) = (   0.0000000   0.2886751   0.0741297), wk =   0.0138889
        k(   12) = (   0.0000000   0.2886751  -0.1482593), wk =   0.0069444
        k(   13) = (   0.0000000   0.3849002   0.0000000), wk =   0.0069444
        k(   14) = (   0.0000000   0.3849002   0.0741297), wk =   0.0138889
        k(   15) = (   0.0000000   0.3849002  -0.1482593), wk =   0.0069444
        k(   16) = (   0.0000000   0.4811252   0.0000000), wk =   0.0069444
        k(   17) = (   0.0000000   0.4811252   0.0741297), wk =   0.0138889
        k(   18) = (   0.0000000   0.4811252  -0.1482593), wk =   0.0069444
        k(   19) = (   0.0000000  -0.5773503   0.0000000), wk =   0.0034722
        k(   20) = (   0.0000000  -0.5773503   0.0741297), wk =   0.0069444
        k(   21) = (   0.0000000  -0.5773503  -0.1482593), wk =   0.0034722
        k(   22) = (   0.0833333   0.1443376   0.0000000), wk =   0.0138889
        k(   23) = (   0.0833333   0.1443376   0.0741297), wk =   0.0277778
        k(   24) = (   0.0833333   0.1443376  -0.1482593), wk =   0.0138889
        k(   25) = (   0.0833333   0.2405626   0.0000000), wk =   0.0138889
        k(   26) = (   0.0833333   0.2405626   0.0741297), wk =   0.0277778
        k(   27) = (   0.0833333   0.2405626  -0.1482593), wk =   0.0138889
        k(   28) = (   0.0833333   0.3367877   0.0000000), wk =   0.0138889
        k(   29) = (   0.0833333   0.3367877   0.0741297), wk =   0.0277778
        k(   30) = (   0.0833333   0.3367877  -0.1482593), wk =   0.0138889
        k(   31) = (   0.0833333   0.4330127   0.0000000), wk =   0.0138889
        k(   32) = (   0.0833333   0.4330127   0.0741297), wk =   0.0277778
        k(   33) = (   0.0833333   0.4330127  -0.1482593), wk =   0.0138889
        k(   34) = (   0.0833333   0.5292377   0.0000000), wk =   0.0138889
        k(   35) = (   0.0833333   0.5292377   0.0741297), wk =   0.0277778
        k(   36) = (   0.0833333   0.5292377  -0.1482593), wk =   0.0138889
        k(   37) = (   0.1666667   0.2886751   0.0000000), wk =   0.0138889
        k(   38) = (   0.1666667   0.2886751   0.0741297), wk =   0.0277778
        k(   39) = (   0.1666667   0.2886751  -0.1482593), wk =   0.0138889
        k(   40) = (   0.1666667   0.3849002   0.0000000), wk =   0.0138889
        k(   41) = (   0.1666667   0.3849002   0.0741297), wk =   0.0277778
        k(   42) = (   0.1666667   0.3849002  -0.1482593), wk =   0.0138889
        k(   43) = (   0.1666667   0.4811252   0.0000000), wk =   0.0138889
        k(   44) = (   0.1666667   0.4811252   0.0741297), wk =   0.0277778
        k(   45) = (   0.1666667   0.4811252  -0.1482593), wk =   0.0138889
        k(   46) = (   0.1666667   0.5773503   0.0000000), wk =   0.0069444
        k(   47) = (   0.1666667   0.5773503   0.0741297), wk =   0.0138889
        k(   48) = (   0.1666667   0.5773503  -0.1482593), wk =   0.0069444
        k(   49) = (   0.2500000   0.4330127   0.0000000), wk =   0.0138889
        k(   50) = (   0.2500000   0.4330127   0.0741297), wk =   0.0277778
        k(   51) = (   0.2500000   0.4330127  -0.1482593), wk =   0.0138889
        k(   52) = (   0.2500000   0.5292377   0.0000000), wk =   0.0138889
        k(   53) = (   0.2500000   0.5292377   0.0741297), wk =   0.0277778
        k(   54) = (   0.2500000   0.5292377  -0.1482593), wk =   0.0138889
        k(   55) = (   0.3333333   0.5773503   0.0000000), wk =   0.0069444
        k(   56) = (   0.3333333   0.5773503   0.0741297), wk =   0.0138889
        k(   57) = (   0.3333333   0.5773503  -0.1482593), wk =   0.0069444
        k(   58) = (  -0.0833333  -0.0481125   0.0000000), wk =   0.0138889
        k(   59) = (  -0.0833333  -0.0481125  -0.0741297), wk =   0.0277778
        k(   60) = (  -0.0833333  -0.0481125   0.1482593), wk =   0.0138889
        k(   61) = (  -0.1666667  -0.0962250   0.0000000), wk =   0.0138889
        k(   62) = (  -0.1666667  -0.0962250  -0.0741297), wk =   0.0277778
        k(   63) = (  -0.1666667  -0.0962250   0.1482593), wk =   0.0138889
        k(   64) = (  -0.2500000  -0.1443376   0.0000000), wk =   0.0138889
        k(   65) = (  -0.2500000  -0.1443376  -0.0741297), wk =   0.0277778
        k(   66) = (  -0.2500000  -0.1443376   0.1482593), wk =   0.0138889
        k(   67) = (  -0.3333333  -0.1924501   0.0000000), wk =   0.0138889
        k(   68) = (  -0.3333333  -0.1924501  -0.0741297), wk =   0.0277778
        k(   69) = (  -0.3333333  -0.1924501   0.1482593), wk =   0.0138889
        k(   70) = (  -0.4166667  -0.2405626   0.0000000), wk =   0.0138889
        k(   71) = (  -0.4166667  -0.2405626  -0.0741297), wk =   0.0277778
        k(   72) = (  -0.4166667  -0.2405626   0.1482593), wk =   0.0138889
        k(   73) = (   0.5000000   0.2886751   0.0000000), wk =   0.0069444
        k(   74) = (   0.5000000   0.2886751  -0.0741297), wk =   0.0138889
        k(   75) = (   0.5000000   0.2886751   0.1482593), wk =   0.0069444
        k(   76) = (   0.1666667   0.0000000   0.0000000), wk =   0.0069444
        k(   77) = (   0.1666667   0.0000000  -0.0741297), wk =   0.0138889
        k(   78) = (   0.1666667   0.0000000   0.1482593), wk =   0.0069444
        k(   79) = (  -0.1666667  -0.1924501   0.0000000), wk =   0.0138889
        k(   80) = (   0.2500000  -0.0481125   0.0000000), wk =   0.0138889
        k(   81) = (  -0.1666667  -0.1924501  -0.0741297), wk =   0.0277778
        k(   82) = (   0.2500000  -0.0481125  -0.0741297), wk =   0.0277778
        k(   83) = (  -0.1666667  -0.1924501   0.1482593), wk =   0.0138889
        k(   84) = (   0.2500000  -0.0481125   0.1482593), wk =   0.0138889
        k(   85) = (  -0.2500000  -0.2405626   0.0000000), wk =   0.0138889
        k(   86) = (   0.3333333  -0.0962250   0.0000000), wk =   0.0138889
        k(   87) = (  -0.2500000  -0.2405626  -0.0741297), wk =   0.0277778
        k(   88) = (   0.3333333  -0.0962250  -0.0741297), wk =   0.0277778
        k(   89) = (  -0.2500000  -0.2405626   0.1482593), wk =   0.0138889
        k(   90) = (   0.3333333  -0.0962250   0.1482593), wk =   0.0138889
        k(   91) = (  -0.3333333  -0.2886751   0.0000000), wk =   0.0138889
        k(   92) = (   0.4166667  -0.1443376   0.0000000), wk =   0.0138889
        k(   93) = (  -0.3333333  -0.2886751  -0.0741297), wk =   0.0277778
        k(   94) = (   0.4166667  -0.1443376  -0.0741297), wk =   0.0277778
        k(   95) = (  -0.3333333  -0.2886751   0.1482593), wk =   0.0138889
        k(   96) = (   0.4166667  -0.1443376   0.1482593), wk =   0.0138889
        k(   97) = (  -0.4166667  -0.3367877   0.0000000), wk =   0.0138889
        k(   98) = (   0.5000000  -0.1924501   0.0000000), wk =   0.0138889
        k(   99) = (  -0.4166667  -0.3367877  -0.0741297), wk =   0.0277778
        k(  100) = (   0.5000000  -0.1924501  -0.0741297), wk =   0.0277778
        k(  101) = (  -0.4166667  -0.3367877   0.1482593), wk =   0.0138889
        k(  102) = (   0.5000000  -0.1924501   0.1482593), wk =   0.0138889
        k(  103) = (   0.3333333   0.0000000   0.0000000), wk =   0.0069444
        k(  104) = (   0.3333333   0.0000000  -0.0741297), wk =   0.0138889
        k(  105) = (   0.3333333   0.0000000   0.1482593), wk =   0.0069444
        k(  106) = (  -0.2500000  -0.3367877   0.0000000), wk =   0.0138889
        k(  107) = (   0.4166667  -0.0481125   0.0000000), wk =   0.0138889
        k(  108) = (  -0.2500000  -0.3367877  -0.0741297), wk =   0.0277778
        k(  109) = (   0.4166667  -0.0481125  -0.0741297), wk =   0.0277778
        k(  110) = (  -0.2500000  -0.3367877   0.1482593), wk =   0.0138889
        k(  111) = (   0.4166667  -0.0481125   0.1482593), wk =   0.0138889
        k(  112) = (  -0.3333333  -0.3849002   0.0000000), wk =   0.0138889
        k(  113) = (   0.5000000  -0.0962250   0.0000000), wk =   0.0138889
        k(  114) = (  -0.3333333  -0.3849002  -0.0741297), wk =   0.0277778
        k(  115) = (   0.5000000  -0.0962250  -0.0741297), wk =   0.0277778
        k(  116) = (  -0.3333333  -0.3849002   0.1482593), wk =   0.0138889
        k(  117) = (   0.5000000  -0.0962250   0.1482593), wk =   0.0138889
        k(  118) = (  -0.4166667  -0.4330127   0.0000000), wk =   0.0138889
        k(  119) = (  -0.4166667  -0.4330127  -0.0741297), wk =   0.0277778
        k(  120) = (  -0.4166667  -0.4330127   0.1482593), wk =   0.0138889
        k(  121) = (   0.5000000  -0.0000000   0.0000000), wk =   0.0069444
        k(  122) = (   0.5000000  -0.0000000  -0.0741297), wk =   0.0138889
        k(  123) = (   0.5000000  -0.0000000   0.1482593), wk =   0.0069444
        k(  124) = (  -0.3333333  -0.4811252   0.0000000), wk =   0.0138889
        k(  125) = (   0.5833333  -0.0481125   0.0000000), wk =   0.0138889
        k(  126) = (  -0.3333333  -0.4811252  -0.0741297), wk =   0.0277778
        k(  127) = (   0.5833333  -0.0481125  -0.0741297), wk =   0.0277778
        k(  128) = (  -0.3333333  -0.4811252   0.1482593), wk =   0.0138889
        k(  129) = (   0.5833333  -0.0481125   0.1482593), wk =   0.0138889

                       cryst. coord.
        k(    1) = (   0.0000000   0.0000000   0.0000000), wk =   0.0034722
        k(    2) = (   0.0000000   0.0000000   0.2500000), wk =   0.0069444
        k(    3) = (   0.0000000   0.0000000  -0.5000000), wk =   0.0034722
        k(    4) = (   0.0000000   0.0833333   0.0000000), wk =   0.0069444
        k(    5) = (   0.0000000   0.0833333   0.2500000), wk =   0.0138889
        k(    6) = (   0.0000000   0.0833333  -0.5000000), wk =   0.0069444
        k(    7) = (   0.0000000   0.1666667   0.0000000), wk =   0.0069444
        k(    8) = (   0.0000000   0.1666667   0.2500000), wk =   0.0138889
        k(    9) = (   0.0000000   0.1666667  -0.5000000), wk =   0.0069444
        k(   10) = (   0.0000000   0.2500000   0.0000000), wk =   0.0069444
        k(   11) = (   0.0000000   0.2500000   0.2500000), wk =   0.0138889
        k(   12) = (   0.0000000   0.2500000  -0.5000000), wk =   0.0069444
        k(   13) = (   0.0000000   0.3333333   0.0000000), wk =   0.0069444
        k(   14) = (   0.0000000   0.3333333   0.2500000), wk =   0.0138889
        k(   15) = (   0.0000000   0.3333333  -0.5000000), wk =   0.0069444
        k(   16) = (   0.0000000   0.4166667   0.0000000), wk =   0.0069444
        k(   17) = (   0.0000000   0.4166667   0.2500000), wk =   0.0138889
        k(   18) = (   0.0000000   0.4166667  -0.5000000), wk =   0.0069444
        k(   19) = (   0.0000000  -0.5000000   0.0000000), wk =   0.0034722
        k(   20) = (   0.0000000  -0.5000000   0.2500000), wk =   0.0069444
        k(   21) = (   0.0000000  -0.5000000  -0.5000000), wk =   0.0034722
        k(   22) = (   0.0833333   0.0833333   0.0000000), wk =   0.0138889
        k(   23) = (   0.0833333   0.0833333   0.2500000), wk =   0.0277778
        k(   24) = (   0.0833333   0.0833333  -0.5000000), wk =   0.0138889
        k(   25) = (   0.0833333   0.1666667   0.0000000), wk =   0.0138889
        k(   26) = (   0.0833333   0.1666667   0.2500000), wk =   0.0277778
        k(   27) = (   0.0833333   0.1666667  -0.5000000), wk =   0.0138889
        k(   28) = (   0.0833333   0.2500000   0.0000000), wk =   0.0138889
        k(   29) = (   0.0833333   0.2500000   0.2500000), wk =   0.0277778
        k(   30) = (   0.0833333   0.2500000  -0.5000000), wk =   0.0138889
        k(   31) = (   0.0833333   0.3333333   0.0000000), wk =   0.0138889
        k(   32) = (   0.0833333   0.3333333   0.2500000), wk =   0.0277778
        k(   33) = (   0.0833333   0.3333333  -0.5000000), wk =   0.0138889
        k(   34) = (   0.0833333   0.4166667   0.0000000), wk =   0.0138889
        k(   35) = (   0.0833333   0.4166667   0.2500000), wk =   0.0277778
        k(   36) = (   0.0833333   0.4166667  -0.5000000), wk =   0.0138889
        k(   37) = (   0.1666667   0.1666667   0.0000000), wk =   0.0138889
        k(   38) = (   0.1666667   0.1666667   0.2500000), wk =   0.0277778
        k(   39) = (   0.1666667   0.1666667  -0.5000000), wk =   0.0138889
        k(   40) = (   0.1666667   0.2500000   0.0000000), wk =   0.0138889
        k(   41) = (   0.1666667   0.2500000   0.2500000), wk =   0.0277778
        k(   42) = (   0.1666667   0.2500000  -0.5000000), wk =   0.0138889
        k(   43) = (   0.1666667   0.3333333   0.0000000), wk =   0.0138889
        k(   44) = (   0.1666667   0.3333333   0.2500000), wk =   0.0277778
        k(   45) = (   0.1666667   0.3333333  -0.5000000), wk =   0.0138889
        k(   46) = (   0.1666667   0.4166667   0.0000000), wk =   0.0069444
        k(   47) = (   0.1666667   0.4166667   0.2500000), wk =   0.0138889
        k(   48) = (   0.1666667   0.4166667  -0.5000000), wk =   0.0069444
        k(   49) = (   0.2500000   0.2500000   0.0000000), wk =   0.0138889
        k(   50) = (   0.2500000   0.2500000   0.2500000), wk =   0.0277778
        k(   51) = (   0.2500000   0.2500000  -0.5000000), wk =   0.0138889
        k(   52) = (   0.2500000   0.3333333   0.0000000), wk =   0.0138889
        k(   53) = (   0.2500000   0.3333333   0.2500000), wk =   0.0277778
        k(   54) = (   0.2500000   0.3333333  -0.5000000), wk =   0.0138889
        k(   55) = (   0.3333333   0.3333333   0.0000000), wk =   0.0069444
        k(   56) = (   0.3333333   0.3333333   0.2500000), wk =   0.0138889
        k(   57) = (   0.3333333   0.3333333  -0.5000000), wk =   0.0069444
        k(   58) = (  -0.0833333  -0.0000000   0.0000000), wk =   0.0138889
        k(   59) = (  -0.0833333  -0.0000000  -0.2500000), wk =   0.0277778
        k(   60) = (  -0.0833333  -0.0000000   0.5000000), wk =   0.0138889
        k(   61) = (  -0.1666667  -0.0000000   0.0000000), wk =   0.0138889
        k(   62) = (  -0.1666667  -0.0000000  -0.2500000), wk =   0.0277778
        k(   63) = (  -0.1666667  -0.0000000   0.5000000), wk =   0.0138889
        k(   64) = (  -0.2500000   0.0000000   0.0000000), wk =   0.0138889
        k(   65) = (  -0.2500000   0.0000000  -0.2500000), wk =   0.0277778
        k(   66) = (  -0.2500000   0.0000000   0.5000000), wk =   0.0138889
        k(   67) = (  -0.3333333  -0.0000000   0.0000000), wk =   0.0138889
        k(   68) = (  -0.3333333  -0.0000000  -0.2500000), wk =   0.0277778
        k(   69) = (  -0.3333333  -0.0000000   0.5000000), wk =   0.0138889
        k(   70) = (  -0.4166667   0.0000000   0.0000000), wk =   0.0138889
        k(   71) = (  -0.4166667   0.0000000  -0.2500000), wk =   0.0277778
        k(   72) = (  -0.4166667   0.0000000   0.5000000), wk =   0.0138889
        k(   73) = (   0.5000000   0.0000000   0.0000000), wk =   0.0069444
        k(   74) = (   0.5000000   0.0000000  -0.2500000), wk =   0.0138889
        k(   75) = (   0.5000000   0.0000000   0.5000000), wk =   0.0069444
        k(   76) = (   0.1666667  -0.0833333   0.0000000), wk =   0.0069444
        k(   77) = (   0.1666667  -0.0833333  -0.2500000), wk =   0.0138889
        k(   78) = (   0.1666667  -0.0833333   0.5000000), wk =   0.0069444
        k(   79) = (  -0.1666667  -0.0833333   0.0000000), wk =   0.0138889
        k(   80) = (   0.2500000  -0.1666667   0.0000000), wk =   0.0138889
        k(   81) = (  -0.1666667  -0.0833333  -0.2500000), wk =   0.0277778
        k(   82) = (   0.2500000  -0.1666667  -0.2500000), wk =   0.0277778
        k(   83) = (  -0.1666667  -0.0833333   0.5000000), wk =   0.0138889
        k(   84) = (   0.2500000  -0.1666667   0.5000000), wk =   0.0138889
        k(   85) = (  -0.2500000  -0.0833333   0.0000000), wk =   0.0138889
        k(   86) = (   0.3333333  -0.2500000   0.0000000), wk =   0.0138889
        k(   87) = (  -0.2500000  -0.0833333  -0.2500000), wk =   0.0277778
        k(   88) = (   0.3333333  -0.2500000  -0.2500000), wk =   0.0277778
        k(   89) = (  -0.2500000  -0.0833333   0.5000000), wk =   0.0138889
        k(   90) = (   0.3333333  -0.2500000   0.5000000), wk =   0.0138889
        k(   91) = (  -0.3333333  -0.0833333   0.0000000), wk =   0.0138889
        k(   92) = (   0.4166667  -0.3333333   0.0000000), wk =   0.0138889
        k(   93) = (  -0.3333333  -0.0833333  -0.2500000), wk =   0.0277778
        k(   94) = (   0.4166667  -0.3333333  -0.2500000), wk =   0.0277778
        k(   95) = (  -0.3333333  -0.0833333   0.5000000), wk =   0.0138889
        k(   96) = (   0.4166667  -0.3333333   0.5000000), wk =   0.0138889
        k(   97) = (  -0.4166667  -0.0833333   0.0000000), wk =   0.0138889
        k(   98) = (   0.5000000  -0.4166667   0.0000000), wk =   0.0138889
        k(   99) = (  -0.4166667  -0.0833333  -0.2500000), wk =   0.0277778
        k(  100) = (   0.5000000  -0.4166667  -0.2500000), wk =   0.0277778
        k(  101) = (  -0.4166667  -0.0833333   0.5000000), wk =   0.0138889
        k(  102) = (   0.5000000  -0.4166667   0.5000000), wk =   0.0138889
        k(  103) = (   0.3333333  -0.1666667   0.0000000), wk =   0.0069444
        k(  104) = (   0.3333333  -0.1666667  -0.2500000), wk =   0.0138889
        k(  105) = (   0.3333333  -0.1666667   0.5000000), wk =   0.0069444
        k(  106) = (  -0.2500000  -0.1666667   0.0000000), wk =   0.0138889
        k(  107) = (   0.4166667  -0.2500000   0.0000000), wk =   0.0138889
        k(  108) = (  -0.2500000  -0.1666667  -0.2500000), wk =   0.0277778
        k(  109) = (   0.4166667  -0.2500000  -0.2500000), wk =   0.0277778
        k(  110) = (  -0.2500000  -0.1666667   0.5000000), wk =   0.0138889
        k(  111) = (   0.4166667  -0.2500000   0.5000000), wk =   0.0138889
        k(  112) = (  -0.3333333  -0.1666667   0.0000000), wk =   0.0138889
        k(  113) = (   0.5000000  -0.3333333   0.0000000), wk =   0.0138889
        k(  114) = (  -0.3333333  -0.1666667  -0.2500000), wk =   0.0277778
        k(  115) = (   0.5000000  -0.3333333  -0.2500000), wk =   0.0277778
        k(  116) = (  -0.3333333  -0.1666667   0.5000000), wk =   0.0138889
        k(  117) = (   0.5000000  -0.3333333   0.5000000), wk =   0.0138889
        k(  118) = (  -0.4166667  -0.1666667   0.0000000), wk =   0.0138889
        k(  119) = (  -0.4166667  -0.1666667  -0.2500000), wk =   0.0277778
        k(  120) = (  -0.4166667  -0.1666667   0.5000000), wk =   0.0138889
        k(  121) = (   0.5000000  -0.2500000   0.0000000), wk =   0.0069444
        k(  122) = (   0.5000000  -0.2500000  -0.2500000), wk =   0.0138889
        k(  123) = (   0.5000000  -0.2500000   0.5000000), wk =   0.0069444
        k(  124) = (  -0.3333333  -0.2500000   0.0000000), wk =   0.0138889
        k(  125) = (   0.5833333  -0.3333333   0.0000000), wk =   0.0138889
        k(  126) = (  -0.3333333  -0.2500000  -0.2500000), wk =   0.0277778
        k(  127) = (   0.5833333  -0.3333333  -0.2500000), wk =   0.0277778
        k(  128) = (  -0.3333333  -0.2500000   0.5000000), wk =   0.0138889
        k(  129) = (   0.5833333  -0.3333333   0.5000000), wk =   0.0138889

     Dense  grid:    34301 G-vectors     FFT dimensions: (  30,  30,  96)

     Smooth grid:    12031 G-vectors     FFT dimensions: (  20,  20,  72)

     Dynamical RAM for                 wfc:       0.28 MB

     Dynamical RAM for     wfc (w. buffer):      36.04 MB

     Dynamical RAM for           str. fact:       0.52 MB

     Dynamical RAM for           local pot:       0.00 MB

     Dynamical RAM for          nlocal pot:       0.74 MB

     Dynamical RAM for                qrad:       0.44 MB

     Dynamical RAM for          rho,v,vnew:       3.55 MB

     Dynamical RAM for               rhoin:       1.18 MB

     Dynamical RAM for            rho*nmix:       8.37 MB

     Dynamical RAM for           G-vectors:       2.05 MB

     Dynamical RAM for          h,s,v(r/c):       0.03 MB

     Dynamical RAM for          <psi|beta>:       0.01 MB

     Dynamical RAM for                 psi:       0.55 MB

     Dynamical RAM for                hpsi:       0.55 MB

     Dynamical RAM for                spsi:       0.55 MB

     Dynamical RAM for      wfcinit/wfcrot:       0.75 MB

     Dynamical RAM for           addusdens:      24.60 MB

     Dynamical RAM for          addusforce:      28.00 MB

     Dynamical RAM for         addusstress:      26.17 MB

     Estimated static dynamical RAM per process >      57.24 MB

     Estimated max dynamical RAM per process >      85.24 MB

     Check: negative core charge=   -0.000010

     Initial potential from superposition of free atoms

     starting charge   15.99983, renormalised to   16.00000
     Starting wfcs are   16 randomized atomic wfcs

     total cpu time spent up to now is        3.4 secs

     Self-consistent Calculation

     iteration #  1     ecut=    45.00 Ry     beta= 0.70
     Davidson diagonalization with overlap
     ethr =  1.00E-02,  avg # of iterations =  2.8

     total cpu time spent up to now is       12.7 secs

     total energy              =     -49.53871549 Ry
     estimated scf accuracy    <       0.40405680 Ry

     iteration #  2     ecut=    45.00 Ry     beta= 0.70
     Davidson diagonalization with overlap
     ethr =  2.53E-03,  avg # of iterations =  2.5

     total cpu time spent up to now is       19.1 secs

     total energy              =     -49.59841267 Ry
     estimated scf accuracy    <       0.00592284 Ry

     iteration #  3     ecut=    45.00 Ry     beta= 0.70
     Davidson diagonalization with overlap
     ethr =  3.70E-05,  avg # of iterations =  7.3

     total cpu time spent up to now is       29.0 secs

     total energy              =     -49.59312257 Ry
     estimated scf accuracy    <       0.00064226 Ry

     iteration #  4     ecut=    45.00 Ry     beta= 0.70
     Davidson diagonalization with overlap
     ethr =  4.01E-06,  avg # of iterations =  3.6

     total cpu time spent up to now is       35.6 secs

     total energy              =     -49.59315305 Ry
     estimated scf accuracy    <       0.00001517 Ry

     iteration #  5     ecut=    45.00 Ry     beta= 0.70
     Davidson diagonalization with overlap
     c_bands:  1 eigenvalues not converged
     ethr =  9.48E-08,  avg # of iterations =  2.7

     total cpu time spent up to now is       42.5 secs

     total energy              =     -49.59313485 Ry
     estimated scf accuracy    <       0.00000022 Ry

     iteration #  6     ecut=    45.00 Ry     beta= 0.70
     Davidson diagonalization with overlap
     ethr =  1.35E-09,  avg # of iterations =  3.2

     total cpu time spent up to now is       52.2 secs

     total energy              =     -49.59313440 Ry
     estimated scf accuracy    <          7.2E-09 Ry

     iteration #  7     ecut=    45.00 Ry     beta= 0.70
     Davidson diagonalization with overlap
     c_bands:  1 eigenvalues not converged
     ethr =  4.52E-11,  avg # of iterations =  3.2

     total cpu time spent up to now is       61.0 secs

     total energy              =     -49.59312784 Ry
     estimated scf accuracy    <       0.00000003 Ry

     iteration #  8     ecut=    45.00 Ry     beta= 0.70
     Davidson diagonalization with overlap
     ethr =  4.52E-11,  avg # of iterations =  1.0

     total cpu time spent up to now is       67.1 secs

     total energy              =     -49.59312772 Ry
     estimated scf accuracy    <       0.00000003 Ry

     iteration #  9     ecut=    45.00 Ry     beta= 0.70
     Davidson diagonalization with overlap
     ethr =  4.52E-11,  avg # of iterations =  1.0

     total cpu time spent up to now is       73.5 secs

     total energy              =     -49.59312767 Ry
     estimated scf accuracy    <       0.00000003 Ry

     iteration # 10     ecut=    45.00 Ry     beta= 0.70
     Davidson diagonalization with overlap
     ethr =  4.52E-11,  avg # of iterations =  1.5

     total cpu time spent up to now is       79.7 secs

     total energy              =     -49.59312761 Ry
     estimated scf accuracy    <       0.00000002 Ry

     iteration # 11     ecut=    45.00 Ry     beta= 0.70
     Davidson diagonalization with overlap
     ethr =  4.52E-11,  avg # of iterations =  2.0

     total cpu time spent up to now is       85.2 secs

     total energy              =     -49.59312757 Ry
     estimated scf accuracy    <          4.6E-09 Ry

     iteration # 12     ecut=    45.00 Ry     beta= 0.70
     Davidson diagonalization with overlap
     ethr =  2.87E-11,  avg # of iterations =  1.2

     total cpu time spent up to now is       90.1 secs

     total energy              =     -49.59312754 Ry
     estimated scf accuracy    <          2.6E-09 Ry

     iteration # 13     ecut=    45.00 Ry     beta= 0.70
     Davidson diagonalization with overlap
     ethr =  1.64E-11,  avg # of iterations =  2.0

     total cpu time spent up to now is       95.4 secs

     End of self-consistent calculation

          k = 0.0000 0.0000 0.0000 (  1497 PWs)   bands (ev):

   -14.6472 -14.6015  -3.0279  -2.4603   1.7928   1.7943   1.7972   1.7987
     7.9802  11.5094  13.1513  13.1573

     occupation numbers 
     1.0002   1.0002   1.0347   1.0312   0.8410   0.8409   0.8407   0.8405
     0.1526  -0.0228  -0.0355  -0.0355

          k = 0.0000 0.0000 0.0741 (  1480 PWs)   bands (ev):

   -14.6404 -14.6083  -2.9512  -2.5507   1.7931   1.7941   1.7975   1.7985
     8.3437  10.6805  13.1523  13.1569

     occupation numbers 
     1.0002   1.0002   1.0344   1.0320   0.8410   0.8409   0.8406   0.8405
     0.1225  -0.0032  -0.0355  -0.0355

          k = 0.0000 0.0000-0.1483 (  1450 PWs)   bands (ev):

   -14.6243 -14.6243  -2.7577  -2.7577   1.7936   1.7936   1.7980   1.7980
     9.3404   9.3404  13.1552  13.1591

     occupation numbers 
     1.0002   1.0002   1.0334   1.0334   0.8410   0.8410   0.8406   0.8406
     0.0548   0.0548  -0.0355  -0.0355

          k = 0.0000 0.0962 0.0000 (  1493 PWs)   bands (ev):

   -14.4835 -14.4385  -2.8303  -2.2676   1.1430   1.1462   1.4596   1.4621
     8.1927  11.7041  13.2082  13.2332

     occupation numbers 
     1.0002   1.0002   1.0339   1.0293   0.8938   0.8935   0.8692   0.8690
     0.1347  -0.0259  -0.0355  -0.0354

          k = 0.0000 0.0962 0.0741 (  1489 PWs)   bands (ev):

   -14.4770 -14.4452  -2.7542  -2.3571   1.1435   1.1458   1.4599   1.4617
     8.5543  10.8787  13.2191  13.2317

     occupation numbers 
     1.0002   1.0002   1.0334   1.0302   0.8937   0.8936   0.8692   0.8690
     0.1064  -0.0089  -0.0355  -0.0354

          k = 0.0000 0.0962-0.1483 (  1486 PWs)   bands (ev):

   -14.4611 -14.4611  -2.5623  -2.5623   1.1446   1.1446   1.4608   1.4608
     9.5458   9.5458  13.2270  13.2270

     occupation numbers 
     1.0002   1.0002   1.0321   1.0321   0.8936   0.8936   0.8691   0.8691
     0.0436   0.0436  -0.0355  -0.0355

          k = 0.0000 0.1925 0.0000 (  1503 PWs)   bands (ev):

   -13.9945 -13.9512  -2.2425  -1.6949  -0.4919  -0.4851   0.6691   0.6728
     8.8307  12.2713  13.1306  13.1849

     occupation numbers 
     1.0003   1.0003   1.0290   1.0207   0.9862   0.9859   0.9264   0.9262
     0.0868  -0.0322  -0.0354  -0.0355

          k = 0.0000 0.1925 0.0741 (  1496 PWs)   bands (ev):

   -13.9882 -13.9576  -2.1683  -1.7818  -0.4909  -0.4861   0.6696   0.6722
     9.1860  11.4641  13.1560  13.1820

     occupation numbers 
     1.0003   1.0003   1.0281   1.0223   0.9861   0.9859   0.9264   0.9262
     0.0639  -0.0220  -0.0355  -0.0355

          k = 0.0000 0.1925-0.1483 (  1490 PWs)   bands (ev):

   -13.9730 -13.9730  -1.9814  -1.9814  -0.4885  -0.4885   0.6709   0.6709
    10.1595  10.1595  13.1723  13.1723

     occupation numbers 
     1.0003   1.0003   1.0256   1.0256   0.9860   0.9860   0.9263   0.9263
     0.0151   0.0151  -0.0355  -0.0355

          k = 0.0000 0.2887 0.0000 (  1497 PWs)   bands (ev):

   -13.1859 -13.1454  -2.5863  -2.5748  -1.2825  -0.7629  -0.2086  -0.2041
     9.8913  11.9623  12.0822  12.8384

     occupation numbers 
     1.0006   1.0006   1.0323   1.0322   1.0116   0.9962   0.9742   0.9740
     0.0266  -0.0292  -0.0305  -0.0350

          k = 0.0000 0.2887 0.0741 (  1502 PWs)   bands (ev):

   -13.1800 -13.1514  -2.5847  -2.5765  -1.2118  -0.8450  -0.2079  -0.2048
    10.2293  11.9230  12.0508  12.5719

     occupation numbers 
     1.0006   1.0006   1.0323   1.0322   1.0098   0.9989   0.9741   0.9740
     0.0124  -0.0288  -0.0302  -0.0341

          k = 0.0000 0.2887-0.1483 (  1508 PWs)   bands (ev):

   -13.1658 -13.1658  -2.5806  -2.5806  -1.0340  -1.0340  -0.2063  -0.2063
    11.1321  11.1321  12.1134  12.1134

     occupation numbers 
     1.0006   1.0006   1.0322   1.0322   1.0048   1.0048   0.9741   0.9741
    -0.0153  -0.0153  -0.0308  -0.0308

          k = 0.0000 0.3849 0.0000 (  1504 PWs)   bands (ev):

   -12.0700 -12.0332  -4.7849  -4.7683  -0.9403  -0.9354   0.0033   0.4743
     9.6322   9.8497  11.3590  12.5057

     occupation numbers 
     1.0012   1.0013   1.0312   1.0313   1.0020   1.0018   0.9641   0.9385
     0.0391   0.0285  -0.0200  -0.0337

          k = 0.0000 0.3849 0.0741 (  1509 PWs)   bands (ev):

   -12.0647 -12.0387  -4.7825  -4.7707  -0.9396  -0.9361   0.0679   0.4005
     9.6548   9.8098  11.6958  12.5055

     occupation numbers 
     1.0012   1.0013   1.0312   1.0312   1.0020   1.0019   0.9609   0.9428
     0.0379   0.0304  -0.0258  -0.0337

          k = 0.0000 0.3849-0.1483 (  1502 PWs)   bands (ev):

   -12.0517 -12.0517  -4.7766  -4.7766  -0.9378  -0.9378   0.2297   0.2297
     9.7246   9.7246  12.4125  12.4125

     occupation numbers 
     1.0012   1.0012   1.0312   1.0312   1.0019   1.0019   0.9524   0.9524
     0.0345   0.0345  -0.0332  -0.0332

          k = 0.0000 0.4811 0.0000 (  1508 PWs)   bands (ev):

   -10.6778 -10.6460  -6.8796  -6.8582  -1.4122  -1.4070   1.4668   1.8371
     7.4794   7.7538  12.2544  12.3121

     occupation numbers 
     1.0029   1.0029   1.0175   1.0176   1.0148   1.0147   0.8686   0.8371
     0.1984   0.1727  -0.0320  -0.0325

          k = 0.0000 0.4811 0.0741 (  1510 PWs)   bands (ev):

   -10.6732 -10.6507  -6.8765  -6.8614  -1.4114  -1.4078   1.5188   1.7805
     7.5128   7.7069  12.2644  12.3055

     occupation numbers 
     1.0029   1.0029   1.0175   1.0176   1.0148   1.0147   0.8644   0.8421
     0.1952   0.1770  -0.0321  -0.0324

          k = 0.0000 0.4811-0.1483 (  1500 PWs)   bands (ev):

   -10.6620 -10.6620  -6.8689  -6.8689  -1.4096  -1.4096   1.6474   1.6474
     7.6031   7.6031  12.2863  12.2863

     occupation numbers 
     1.0029   1.0029   1.0176   1.0176   1.0147   1.0147   0.8536   0.8536
     0.1866   0.1866  -0.0323  -0.0323

          k = 0.0000-0.5774 0.0000 (  1508 PWs)   bands (ev):

    -9.4152  -9.4002  -8.3712  -8.3591  -1.5742  -1.5689   2.3991   2.5731
     6.4109   6.6504  12.1720  12.2386

     occupation numbers 
     1.0058   1.0058   1.0096   1.0096   1.0183   1.0182   0.7840   0.7664
     0.3114   0.2845  -0.0313  -0.0319

          k = 0.0000-0.5774 0.0741 (  1520 PWs)   bands (ev):

    -9.4130  -9.4024  -8.3695  -8.3610  -1.5734  -1.5697   2.4261   2.5493
     6.4357   6.6050  12.1817  12.2287

     occupation numbers 
     1.0058   1.0058   1.0096   1.0096   1.0183   1.0182   0.7813   0.7689
     0.3085   0.2895  -0.0314  -0.0318

          k = 0.0000-0.5774-0.1483 (  1520 PWs)   bands (ev):

    -9.4077  -9.4077  -8.3653  -8.3653  -1.5716  -1.5716   2.4893   2.4893
     6.5101   6.5101  12.2051  12.2051

     occupation numbers 
     1.0058   1.0058   1.0096   1.0096   1.0183   1.0183   0.7750   0.7750
     0.3001   0.3001  -0.0316  -0.0316

          k = 0.0833 0.1443 0.0000 (  1505 PWs)   bands (ev):

   -14.1572 -14.1134  -2.4376  -1.8848   0.1123   0.1154   0.7842   0.7863
     8.6184  12.0884  13.4852  13.5357

     occupation numbers 
     1.0003   1.0003   1.0310   1.0241   0.9586   0.9585   0.9190   0.9188
     0.1017  -0.0306  -0.0352  -0.0351

          k = 0.0833 0.1443 0.0741 (  1502 PWs)   bands (ev):

   -14.1508 -14.1198  -2.3627  -1.9726   0.1128   0.1150   0.7845   0.7860
     8.9760  11.2731  13.5090  13.5328

     occupation numbers 
     1.0003   1.0003   1.0303   1.0254   0.9586   0.9585   0.9189   0.9188
     0.0771  -0.0183  -0.0351  -0.0351

          k = 0.0833 0.1443-0.1483 (  1500 PWs)   bands (ev):

   -14.1354 -14.1354  -2.1740  -2.1740   0.1139   0.1139   0.7853   0.7853
     9.9564   9.9564  13.5247  13.5247

     occupation numbers 
     1.0003   1.0003   1.0282   1.0282   0.9585   0.9585   0.9189   0.9189
     0.0237   0.0237  -0.0351  -0.0351

          k = 0.0833 0.2406 0.0000 (  1500 PWs)   bands (ev):

   -13.5084 -13.4668  -1.6626  -1.5956  -1.5881  -1.1311  -0.2110  -0.2066
     9.4695  12.7284  12.8597  13.0479

     occupation numbers 
     1.0005   1.0005   1.0201   1.0188   1.0186   1.0076   0.9743   0.9741
     0.0476  -0.0347  -0.0351  -0.0354

          k = 0.0833 0.2406 0.0741 (  1503 PWs)   bands (ev):

   -13.5024 -13.4730  -1.5946  -1.5912  -1.5883  -1.2152  -0.2103  -0.2072
     9.8175  12.0327  12.8651  12.9472

     occupation numbers 
     1.0005   1.0005   1.0188   1.0187   1.0186   1.0099   0.9743   0.9741
     0.0300  -0.0300  -0.0351  -0.0353

          k = 0.0833 0.2406-0.1483 (  1506 PWs)   bands (ev):

   -13.4878 -13.4878  -1.5919  -1.5919  -1.4087  -1.4087  -0.2088  -0.2088
    10.7697  10.7697  12.9000  12.9000

     occupation numbers 
     1.0005   1.0005   1.0187   1.0187   1.0147   1.0147   0.9742   0.9742
    -0.0059  -0.0059  -0.0352  -0.0352

          k = 0.0833 0.3368 0.0000 (  1514 PWs)   bands (ev):

   -12.5460 -12.5077  -3.6648  -3.6516  -1.0958  -1.0897  -0.5338  -0.0392
    10.6749  10.7393  10.8278  13.3635

     occupation numbers 
     1.0009   1.0009   1.0354   1.0354   1.0066   1.0065   0.9878   0.9662
    -0.0031  -0.0050  -0.0075  -0.0354

          k = 0.0833 0.3368 0.0741 (  1506 PWs)   bands (ev):

   -12.5405 -12.5133  -3.6629  -3.6535  -1.0949  -1.0906  -0.4663  -0.1171
    10.6704  10.7929  11.1094  13.1605

     occupation numbers 
     1.0009   1.0009   1.0354   1.0354   1.0066   1.0065   0.9852   0.9700
    -0.0029  -0.0066  -0.0147  -0.0355

          k = 0.0833 0.3368-0.1483 (  1504 PWs)   bands (ev):

   -12.5269 -12.5269  -3.6582  -3.6582  -1.0928  -1.0928  -0.2968  -0.2968
    10.7289  10.7289  12.0194  12.0195

     occupation numbers 
     1.0009   1.0009   1.0354   1.0354   1.0065   1.0065   0.9781   0.9781
    -0.0047  -0.0047  -0.0299  -0.0299

          k = 0.0833 0.4330 0.0000 (  1522 PWs)   bands (ev):

   -11.2888 -11.2548  -5.7827  -5.7641  -1.7295  -1.7227   0.8711   1.2993
     8.4388   8.6721  12.4000  13.0792

     occupation numbers 
     1.0020   1.0021   1.0248   1.0249   1.0214   1.0212   0.9131   0.8819
     0.1151   0.0978  -0.0331  -0.0354

          k = 0.0833 0.4330 0.0741 (  1517 PWs)   bands (ev):

   -11.2839 -11.2598  -5.7800  -5.7668  -1.7285  -1.7237   0.9303   1.2327
     8.4681   8.6333  12.6957  13.0850

     occupation numbers 
     1.0020   1.0020   1.0248   1.0249   1.0214   1.0213   0.9090   0.8870
     0.1129   0.1006  -0.0346  -0.0354

          k = 0.0833 0.4330-0.1483 (  1514 PWs)   bands (ev):

   -11.2719 -11.2719  -5.7734  -5.7734  -1.7261  -1.7261   1.0779   1.0779
     8.5460   8.5460  13.0696  13.0696

     occupation numbers 
     1.0020   1.0020   1.0248   1.0248   1.0213   1.0213   0.8985   0.8985
     0.1070   0.1070  -0.0354  -0.0354

          k = 0.0833 0.5292 0.0000 (  1524 PWs)   bands (ev):

    -9.8134  -9.7861  -7.7169  -7.6954  -2.0574  -2.0502   2.2490   2.5169
     6.6804   6.9213  12.9025  12.9781

     occupation numbers 
     1.0047   1.0048   1.0127   1.0128   1.0266   1.0265   0.7988   0.7722
     0.2812   0.2551  -0.0352  -0.0353

          k = 0.0833 0.5292 0.0741 (  1515 PWs)   bands (ev):

    -9.8094  -9.7901  -7.7138  -7.6986  -2.0563  -2.0512   2.2881   2.4776
     6.7080   6.8785  12.9136  12.9671

     occupation numbers 
     1.0047   1.0047   1.0127   1.0128   1.0266   1.0266   0.7950   0.7762
     0.2781   0.2597  -0.0352  -0.0353

          k = 0.0833 0.5292-0.1483 (  1524 PWs)   bands (ev):

    -9.7998  -9.7998  -7.7062  -7.7062  -2.0538  -2.0538   2.3828   2.3828
     6.7857   6.7857  12.9403  12.9403

     occupation numbers 
     1.0047   1.0047   1.0127   1.0127   1.0266   1.0266   0.7857   0.7857
     0.2697   0.2697  -0.0353  -0.0353

          k = 0.1667 0.2887 0.0000 (  1509 PWs)   bands (ev):

   -12.7058 -12.6669  -2.9227  -2.9166  -1.5674  -1.5630  -0.7155  -0.2133
    10.5314  11.1413  11.2425  13.6992

     occupation numbers 
     1.0008   1.0008   1.0343   1.0343   1.0182   1.0181   0.9945   0.9744
     0.0015  -0.0155  -0.0177  -0.0347

          k = 0.1667 0.2887 0.0741 (  1516 PWs)   bands (ev):

   -12.7001 -12.6727  -2.9218  -2.9175  -1.5668  -1.5636  -0.6470  -0.2925
    10.8651  11.1559  11.2277  12.9791

     occupation numbers 
     1.0008   1.0008   1.0343   1.0343   1.0182   1.0181   0.9921   0.9779
    -0.0086  -0.0158  -0.0174  -0.0353

          k = 0.1667 0.2887-0.1483 (  1518 PWs)   bands (ev):

   -12.6865 -12.6865  -2.9197  -2.9197  -1.5652  -1.5652  -0.4750  -0.4750
    11.1914  11.1914  11.7769  11.7769

     occupation numbers 
     1.0008   1.0008   1.0343   1.0343   1.0182   1.0182   0.9855   0.9855
    -0.0166  -0.0166  -0.0269  -0.0269

          k = 0.1667 0.3849 0.0000 (  1517 PWs)   bands (ev):

   -11.6007 -11.5655  -4.6477  -4.6350  -2.6223  -2.6141   0.5552   1.0089
     9.1835   9.3281  12.0033  14.7698

     occupation numbers 
     1.0017   1.0017   1.0319   1.0320   1.0326   1.0325   0.9336   0.9035
     0.0641   0.0555  -0.0297  -0.0295

          k = 0.1667 0.3849 0.0741 (  1515 PWs)   bands (ev):

   -11.5956 -11.5707  -4.6458  -4.6368  -2.6211  -2.6153   0.6176   0.9380
     9.2034   9.3059  12.3107  14.1787

     occupation numbers 
     1.0017   1.0017   1.0319   1.0320   1.0325   1.0325   0.9297   0.9085
     0.0629   0.0568  -0.0325  -0.0328

          k = 0.1667 0.3849-0.1483 (  1524 PWs)   bands (ev):

   -11.5832 -11.5832  -4.6413  -4.6413  -2.6182  -2.6182   0.7735   0.7735
     9.2537   9.2537  13.1368  13.1368

     occupation numbers 
     1.0017   1.0017   1.0319   1.0319   1.0325   1.0325   0.9197   0.9197
     0.0599   0.0599  -0.0355  -0.0355

          k = 0.1667 0.4811 0.0000 (  1522 PWs)   bands (ev):

   -10.2285 -10.1982  -6.5535  -6.5344  -3.1986  -3.1881   2.0192   2.3804
     7.2578   7.4533  13.8518  14.7676

     occupation numbers 
     1.0037   1.0038   1.0196   1.0197   1.0352   1.0352   0.8206   0.7859
     0.2202   0.2009  -0.0342  -0.0295

          k = 0.1667 0.4811 0.0741 (  1525 PWs)   bands (ev):

   -10.2241 -10.2026  -6.5507  -6.5372  -3.1971  -3.1896   2.0699   2.3252
     7.2836   7.4220  14.0975  14.7739

     occupation numbers 
     1.0037   1.0038   1.0196   1.0197   1.0352   1.0352   0.8159   0.7914
     0.2177   0.2040  -0.0331  -0.0294

          k = 0.1667 0.4811-0.1483 (  1520 PWs)   bands (ev):

   -10.2134 -10.2134  -6.5440  -6.5440  -3.1934  -3.1934   2.1953   2.1953
     7.3500   7.3500  14.6560  14.6560

     occupation numbers 
     1.0038   1.0038   1.0197   1.0197   1.0352   1.0352   0.8040   0.8040
     0.2110   0.2110  -0.0302  -0.0302

          k = 0.1667 0.5774 0.0000 (  1527 PWs)   bands (ev):

    -8.9948  -8.9806  -7.9747  -7.9640  -3.3835  -3.3725   2.9965   3.1668
     6.2336   6.3654  14.6685  14.8091

     occupation numbers 
     1.0071   1.0072   1.0114   1.0114   1.0354   1.0354   0.7213   0.7024
     0.3318   0.3166  -0.0301  -0.0292

          k = 0.1667 0.5774 0.0741 (  1526 PWs)   bands (ev):

    -8.9927  -8.9826  -7.9732  -7.9657  -3.3819  -3.3741   3.0231   3.1437
     6.2459   6.3395  14.6867  14.7854

     occupation numbers 
     1.0071   1.0072   1.0114   1.0114   1.0354   1.0354   0.7184   0.7050
     0.3303   0.3195  -0.0300  -0.0294

          k = 0.1667 0.5774-0.1483 (  1532 PWs)   bands (ev):

    -8.9877  -8.9877  -7.9695  -7.9695  -3.3780  -3.3780   3.0852   3.0852
     6.2859   6.2859  14.7329  14.7329

     occupation numbers 
     1.0071   1.0071   1.0114   1.0114   1.0354   1.0354   0.7115   0.7115
     0.3257   0.3257  -0.0297  -0.0297

          k = 0.2500 0.4330 0.0000 (  1525 PWs)   bands (ev):

   -10.3757 -10.3447  -5.6804  -5.6711  -4.0975  -4.0904   1.9222   2.3123
     7.5794   7.7168  13.6509  15.3974

     occupation numbers 
     1.0034   1.0035   1.0255   1.0255   1.0343   1.0344   0.8295   0.7926
     0.1889   0.1761  -0.0348  -0.0254

          k = 0.2500 0.4330 0.0741 (  1530 PWs)   bands (ev):

   -10.3712 -10.3493  -5.6790  -5.6724  -4.0965  -4.0914   1.9764   2.2520
     7.5994   7.6965  13.8813  15.0961

     occupation numbers 
     1.0034   1.0035   1.0255   1.0255   1.0343   1.0344   0.8245   0.7985
     0.1870   0.1779  -0.0340  -0.0274

          k = 0.2500 0.4330-0.1483 (  1534 PWs)   bands (ev):

   -10.3603 -10.3603  -5.6757  -5.6757  -4.0940  -4.0940   2.1112   2.1112
     7.6478   7.6478  14.4607  14.4607

     occupation numbers 
     1.0035   1.0035   1.0255   1.0255   1.0344   1.0344   0.8120   0.8120
     0.1824   0.1824  -0.0313  -0.0313

          k = 0.2500 0.5292 0.0000 (  1531 PWs)   bands (ev):

    -8.9572  -8.9327  -7.0982  -7.0823  -4.8054  -4.7936   3.3598   3.6259
     6.0720   6.2033  15.5883  15.6467

     occupation numbers 
     1.0073   1.0073   1.0162   1.0163   1.0310   1.0311   0.6805   0.6496
     0.3507   0.3353  -0.0241  -0.0237

          k = 0.2500 0.5292 0.0741 (  1531 PWs)   bands (ev):

    -8.9536  -8.9364  -7.0959  -7.0847  -4.8037  -4.7953   3.3984   3.5867
     6.0892   6.1821  15.4164  15.5086

     occupation numbers 
     1.0073   1.0073   1.0162   1.0162   1.0311   1.0311   0.6761   0.6542
     0.3486   0.3377  -0.0252  -0.0246

          k = 0.2500 0.5292-0.1483 (  1544 PWs)   bands (ev):

    -8.9450  -8.9450  -7.0903  -7.0903  -4.7995  -4.7995   3.4922   3.4922
     6.1337   6.1337  15.3518  15.3518

     occupation numbers 
     1.0073   1.0073   1.0162   1.0162   1.0311   1.0311   0.6652   0.6652
     0.3434   0.3434  -0.0257  -0.0257

          k = 0.3333 0.5774 0.0000 (  1527 PWs)   bands (ev):

    -7.7464  -7.7343  -7.7342  -7.7220  -5.6870  -5.6870   4.6863   4.8409
     4.8410   5.0052  15.5061  15.5068

     occupation numbers 
     1.0125   1.0126   1.0126   1.0127   1.0254   1.0254   0.5203   0.5011
     0.5011   0.4807  -0.0246  -0.0246

          k = 0.3333 0.5774 0.0741 (  1530 PWs)   bands (ev):

    -7.7429  -7.7343  -7.7341  -7.7256  -5.6870  -5.6870   4.7310   4.8419
     4.8419   4.9564  15.3382  15.3386

     occupation numbers 
     1.0125   1.0126   1.0126   1.0126   1.0254   1.0254   0.5148   0.5010
     0.5010   0.4868  -0.0258  -0.0258

          k = 0.3333 0.5774-0.1483 (  1542 PWs)   bands (ev):

    -7.7351  -7.7351  -7.7334  -7.7334  -5.6871  -5.6871   4.8410   4.8410
     4.8433   4.8433  15.2071  15.2071

     occupation numbers 
     1.0126   1.0126   1.0126   1.0126   1.0254   1.0254   0.5011   0.5011
     0.5008   0.5008  -0.0266  -0.0266

          k =-0.0833-0.0481 0.0000 (  1493 PWs)   bands (ev):

   -14.4835 -14.4385  -2.8303  -2.2676   1.1460   1.1491   1.4566   1.4590
     8.1927  11.7040  13.2046  13.2296

     occupation numbers 
     1.0002   1.0002   1.0339   1.0293   0.8935   0.8933   0.8694   0.8692
     0.1347  -0.0259  -0.0355  -0.0355

          k =-0.0833-0.0481-0.0741 (  1489 PWs)   bands (ev):

   -14.4769 -14.4452  -2.7542  -2.3571   1.1465   1.1487   1.4569   1.4587
     8.5543  10.8787  13.2154  13.2281

     occupation numbers 
     1.0002   1.0002   1.0334   1.0302   0.8935   0.8933   0.8694   0.8693
     0.1064  -0.0089  -0.0355  -0.0355

          k =-0.0833-0.0481 0.1483 (  1486 PWs)   bands (ev):

   -14.4611 -14.4611  -2.5623  -2.5623   1.1476   1.1476   1.4578   1.4578
     9.5458   9.5458  13.2235  13.2235

     occupation numbers 
     1.0002   1.0002   1.0321   1.0321   0.8934   0.8934   0.8693   0.8693
     0.0436   0.0436  -0.0355  -0.0355

          k =-0.1667-0.0962 0.0000 (  1503 PWs)   bands (ev):

   -13.9945 -13.9512  -2.2426  -1.6950  -0.4896  -0.4829   0.6666   0.6703
     8.8307  12.2712  13.1283  13.1826

     occupation numbers 
     1.0003   1.0003   1.0290   1.0207   0.9861   0.9858   0.9266   0.9264
     0.0868  -0.0322  -0.0354  -0.0355

          k =-0.1667-0.0962-0.0741 (  1496 PWs)   bands (ev):

   -13.9882 -13.9576  -2.1684  -1.7819  -0.4887  -0.4839   0.6672   0.6698
     9.1859  11.4640  13.1537  13.1797

     occupation numbers 
     1.0003   1.0003   1.0281   1.0223   0.9860   0.9859   0.9266   0.9264
     0.0639  -0.0220  -0.0355  -0.0355

          k =-0.1667-0.0962 0.1483 (  1490 PWs)   bands (ev):

   -13.9730 -13.9730  -1.9814  -1.9814  -0.4863  -0.4863   0.6685   0.6685
    10.1594  10.1594  13.1700  13.1700

     occupation numbers 
     1.0003   1.0003   1.0256   1.0256   0.9859   0.9859   0.9265   0.9265
     0.0151   0.0151  -0.0355  -0.0355

          k =-0.2500-0.1443 0.0000 (  1497 PWs)   bands (ev):

   -13.1859 -13.1454  -2.5847  -2.5731  -1.2826  -0.7630  -0.2106  -0.2061
     9.8913  11.9630  12.0829  12.8369

     occupation numbers 
     1.0006   1.0006   1.0323   1.0322   1.0116   0.9962   0.9743   0.9741
     0.0266  -0.0292  -0.0305  -0.0350

          k =-0.2500-0.1443-0.0741 (  1502 PWs)   bands (ev):

   -13.1800 -13.1514  -2.5830  -2.5749  -1.2119  -0.8451  -0.2100  -0.2068
    10.2292  11.9231  12.0517  12.5722

     occupation numbers 
     1.0006   1.0006   1.0323   1.0322   1.0098   0.9990   0.9742   0.9741
     0.0124  -0.0288  -0.0302  -0.0341

          k =-0.2500-0.1443 0.1483 (  1508 PWs)   bands (ev):

   -13.1658 -13.1658  -2.5789  -2.5789  -1.0342  -1.0342  -0.2084  -0.2084
    11.1319  11.1319  12.1144  12.1144

     occupation numbers 
     1.0006   1.0006   1.0322   1.0322   1.0048   1.0048   0.9742   0.9742
    -0.0152  -0.0152  -0.0308  -0.0308

          k =-0.3333-0.1925 0.0000 (  1504 PWs)   bands (ev):

   -12.0699 -12.0332  -4.7837  -4.7670  -0.9420  -0.9371   0.0030   0.4739
     9.6334   9.8509  11.3590  12.5047

     occupation numbers 
     1.0012   1.0013   1.0312   1.0313   1.0021   1.0019   0.9642   0.9385
     0.0390   0.0285  -0.0200  -0.0337

          k =-0.3333-0.1925-0.0741 (  1509 PWs)   bands (ev):

   -12.0646 -12.0386  -4.7813  -4.7695  -0.9413  -0.9378   0.0676   0.4001
     9.6560   9.8110  11.6958  12.5045

     occupation numbers 
     1.0012   1.0013   1.0312   1.0312   1.0020   1.0019   0.9609   0.9428
     0.0379   0.0303  -0.0258  -0.0337

          k =-0.3333-0.1925 0.1483 (  1502 PWs)   bands (ev):

   -12.0516 -12.0516  -4.7754  -4.7754  -0.9396  -0.9396   0.2293   0.2293
     9.7258   9.7258  12.4119  12.4119

     occupation numbers 
     1.0012   1.0012   1.0312   1.0312   1.0020   1.0020   0.9524   0.9524
     0.0344   0.0344  -0.0332  -0.0332

          k =-0.4167-0.2406 0.0000 (  1508 PWs)   bands (ev):

   -10.6779 -10.6461  -6.8785  -6.8571  -1.4137  -1.4086   1.4660   1.8362
     7.4812   7.7557  12.2536  12.3113

     occupation numbers 
     1.0029   1.0029   1.0175   1.0176   1.0148   1.0147   0.8687   0.8372
     0.1982   0.1725  -0.0320  -0.0325

          k =-0.4167-0.2406-0.0741 (  1510 PWs)   bands (ev):

   -10.6733 -10.6507  -6.8753  -6.8602  -1.4130  -1.4093   1.5180   1.7796
     7.5146   7.7087  12.2636  12.3047

     occupation numbers 
     1.0029   1.0029   1.0175   1.0176   1.0148   1.0147   0.8644   0.8422
     0.1950   0.1768  -0.0321  -0.0324

          k =-0.4167-0.2406 0.1483 (  1500 PWs)   bands (ev):

   -10.6620 -10.6620  -6.8678  -6.8678  -1.4112  -1.4112   1.6465   1.6465
     7.6049   7.6049  12.2855  12.2855

     occupation numbers 
     1.0029   1.0029   1.0176   1.0176   1.0148   1.0148   0.8537   0.8537
     0.1864   0.1864  -0.0323  -0.0323

          k = 0.5000 0.2887 0.0000 (  1508 PWs)   bands (ev):

    -9.4162  -9.4012  -8.3692  -8.3571  -1.5757  -1.5704   2.3976   2.5716
     6.4133   6.6531  12.1712  12.2378

     occupation numbers 
     1.0058   1.0058   1.0096   1.0096   1.0184   1.0183   0.7842   0.7666
     0.3111   0.2842  -0.0313  -0.0319

          k = 0.5000 0.2887-0.0741 (  1520 PWs)   bands (ev):

    -9.4140  -9.4034  -8.3675  -8.3589  -1.5749  -1.5712   2.4245   2.5478
     6.4381   6.6076  12.1810  12.2280

     occupation numbers 
     1.0058   1.0058   1.0096   1.0096   1.0184   1.0183   0.7815   0.7690
     0.3083   0.2892  -0.0314  -0.0318

          k = 0.5000 0.2887 0.1483 (  1520 PWs)   bands (ev):

    -9.4087  -9.4087  -8.3633  -8.3633  -1.5731  -1.5731   2.4878   2.4878
     6.5127   6.5127  12.2044  12.2044

     occupation numbers 
     1.0058   1.0058   1.0096   1.0096   1.0183   1.0183   0.7751   0.7751
     0.2998   0.2998  -0.0316  -0.0316

          k = 0.1667 0.0000 0.0000 (  1505 PWs)   bands (ev):

   -14.1572 -14.1134  -2.4376  -1.8848   0.1151   0.1183   0.7812   0.7834
     8.6184  12.0884  13.4809  13.5313

     occupation numbers 
     1.0003   1.0003   1.0310   1.0241   0.9585   0.9583   0.9192   0.9190
     0.1017  -0.0306  -0.0352  -0.0351

          k = 0.1667 0.0000-0.0741 (  1502 PWs)   bands (ev):

   -14.1508 -14.1198  -2.3627  -1.9726   0.1156   0.1178   0.7815   0.7831
     8.9760  11.2730  13.5046  13.5285

     occupation numbers 
     1.0003   1.0003   1.0303   1.0254   0.9584   0.9583   0.9191   0.9190
     0.0771  -0.0183  -0.0351  -0.0351

          k = 0.1667 0.0000 0.1483 (  1500 PWs)   bands (ev):

   -14.1354 -14.1354  -2.1741  -2.1741   0.1167   0.1167   0.7823   0.7823
     9.9564   9.9564  13.5204  13.5204

     occupation numbers 
     1.0003   1.0003   1.0282   1.0282   0.9584   0.9584   0.9191   0.9191
     0.0237   0.0237  -0.0351  -0.0351

          k =-0.1667-0.1925 0.0000 (  1500 PWs)   bands (ev):

   -13.5084 -13.4668  -1.6626  -1.5944  -1.5869  -1.1311  -0.2123  -0.2080
     9.4695  12.7278  12.8601  13.0489

     occupation numbers 
     1.0005   1.0005   1.0201   1.0188   1.0186   1.0076   0.9743   0.9741
     0.0476  -0.0347  -0.0351  -0.0354

          k = 0.2500-0.0481 0.0000 (  1500 PWs)   bands (ev):

   -13.5084 -13.4668  -1.6627  -1.5932  -1.5856  -1.1312  -0.2137  -0.2093
     9.4695  12.7281  12.8606  13.0490

     occupation numbers 
     1.0005   1.0005   1.0201   1.0187   1.0186   1.0076   0.9744   0.9742
     0.0476  -0.0347  -0.0351  -0.0354

          k =-0.1667-0.1925-0.0741 (  1503 PWs)   bands (ev):

   -13.5024 -13.4730  -1.5933  -1.5910  -1.5874  -1.2153  -0.2117  -0.2086
     9.8175  12.0325  12.8655  12.9477

     occupation numbers 
     1.0005   1.0005   1.0187   1.0187   1.0186   1.0099   0.9743   0.9742
     0.0300  -0.0300  -0.0351  -0.0353

          k = 0.2500-0.0481-0.0741 (  1503 PWs)   bands (ev):

   -13.5024 -13.4730  -1.5921  -1.5909  -1.5863  -1.2154  -0.2131  -0.2100
     9.8175  12.0324  12.8660  12.9482

     occupation numbers 
     1.0005   1.0005   1.0187   1.0187   1.0186   1.0099   0.9744   0.9742
     0.0300  -0.0300  -0.0351  -0.0353

          k =-0.1667-0.1925 0.1483 (  1506 PWs)   bands (ev):

   -13.4877 -13.4877  -1.5907  -1.5907  -1.4088  -1.4088  -0.2102  -0.2102
    10.7696  10.7696  12.9004  12.9004

     occupation numbers 
     1.0005   1.0005   1.0187   1.0187   1.0147   1.0147   0.9742   0.9742
    -0.0059  -0.0059  -0.0352  -0.0352

          k = 0.2500-0.0481 0.1483 (  1506 PWs)   bands (ev):

   -13.4877 -13.4877  -1.5894  -1.5894  -1.4088  -1.4088  -0.2115  -0.2115
    10.7696  10.7696  12.9009  12.9009

     occupation numbers 
     1.0005   1.0005   1.0187   1.0187   1.0147   1.0147   0.9743   0.9743
    -0.0059  -0.0059  -0.0352  -0.0352

          k =-0.2500-0.2406 0.0000 (  1514 PWs)   bands (ev):

   -12.5460 -12.5076  -3.6636  -3.6503  -1.0973  -1.0913  -0.5340  -0.0394
    10.6756  10.7393  10.8284  13.3617

     occupation numbers 
     1.0009   1.0009   1.0354   1.0354   1.0067   1.0065   0.9878   0.9662
    -0.0031  -0.0050  -0.0076  -0.0354

          k = 0.3333-0.0962 0.0000 (  1514 PWs)   bands (ev):

   -12.5460 -12.5076  -3.6631  -3.6499  -1.0978  -1.0918  -0.5341  -0.0396
    10.6761  10.7393  10.8290  13.3605

     occupation numbers 
     1.0009   1.0009   1.0354   1.0354   1.0067   1.0065   0.9878   0.9662
    -0.0031  -0.0050  -0.0076  -0.0354

          k =-0.2500-0.2406-0.0741 (  1506 PWs)   bands (ev):

   -12.5404 -12.5133  -3.6616  -3.6523  -1.0964  -1.0921  -0.4665  -0.1173
    10.6710  10.7934  11.1097  13.1602

     occupation numbers 
     1.0009   1.0009   1.0354   1.0354   1.0066   1.0065   0.9852   0.9700
    -0.0030  -0.0066  -0.0147  -0.0355

          k = 0.3333-0.0962-0.0741 (  1506 PWs)   bands (ev):

   -12.5404 -12.5133  -3.6612  -3.6518  -1.0969  -1.0927  -0.4666  -0.1174
    10.6715  10.7940  11.1096  13.1599

     occupation numbers 
     1.0009   1.0009   1.0354   1.0354   1.0067   1.0065   0.9852   0.9700
    -0.0030  -0.0066  -0.0147  -0.0355

          k =-0.2500-0.2406 0.1483 (  1504 PWs)   bands (ev):

   -12.5269 -12.5269  -3.6570  -3.6570  -1.0943  -1.0943  -0.2970  -0.2970
    10.7295  10.7295  12.0196  12.0197

     occupation numbers 
     1.0009   1.0009   1.0354   1.0354   1.0066   1.0066   0.9781   0.9781
    -0.0047  -0.0047  -0.0299  -0.0299

          k = 0.3333-0.0962 0.1483 (  1504 PWs)   bands (ev):

   -12.5269 -12.5269  -3.6565  -3.6565  -1.0948  -1.0948  -0.2971  -0.2971
    10.7300  10.7300  12.0194  12.0194

     occupation numbers 
     1.0009   1.0009   1.0354   1.0354   1.0066   1.0066   0.9781   0.9781
    -0.0047  -0.0047  -0.0299  -0.0299

          k =-0.3333-0.2887 0.0000 (  1522 PWs)   bands (ev):

   -11.2888 -11.2548  -5.7816  -5.7630  -1.7310  -1.7242   0.8706   1.2987
     8.4401   8.6733  12.4001  13.0784

     occupation numbers 
     1.0020   1.0021   1.0248   1.0249   1.0214   1.0213   0.9131   0.8819
     0.1150   0.0978  -0.0331  -0.0354

          k = 0.4167-0.1443 0.0000 (  1522 PWs)   bands (ev):

   -11.2888 -11.2547  -5.7815  -5.7629  -1.7312  -1.7244   0.8705   1.2986
     8.4405   8.6737  12.3999  13.0781

     occupation numbers 
     1.0020   1.0021   1.0248   1.0249   1.0214   1.0213   0.9132   0.8820
     0.1150   0.0977  -0.0331  -0.0354

          k =-0.3333-0.2887-0.0741 (  1517 PWs)   bands (ev):

   -11.2839 -11.2598  -5.7789  -5.7657  -1.7300  -1.7252   0.9298   1.2322
     8.4693   8.6345  12.6957  13.0842

     occupation numbers 
     1.0020   1.0020   1.0248   1.0249   1.0214   1.0213   0.9091   0.8871
     0.1128   0.1005  -0.0346  -0.0354

          k = 0.4167-0.1443-0.0741 (  1517 PWs)   bands (ev):

   -11.2839 -11.2598  -5.7787  -5.7656  -1.7302  -1.7254   0.9297   1.2321
     8.4697   8.6349  12.6954  13.0839

     occupation numbers 
     1.0020   1.0020   1.0248   1.0249   1.0214   1.0213   0.9091   0.8871
     0.1128   0.1005  -0.0346  -0.0354

          k =-0.3333-0.2887 0.1483 (  1514 PWs)   bands (ev):

   -11.2719 -11.2719  -5.7723  -5.7723  -1.7276  -1.7276   1.0774   1.0774
     8.5472   8.5472  13.0689  13.0689

     occupation numbers 
     1.0020   1.0020   1.0249   1.0249   1.0213   1.0213   0.8986   0.8986
     0.1070   0.1070  -0.0354  -0.0354

          k = 0.4167-0.1443 0.1483 (  1514 PWs)   bands (ev):

   -11.2718 -11.2718  -5.7722  -5.7722  -1.7278  -1.7278   1.0772   1.0772
     8.5476   8.5476  13.0684  13.0685

     occupation numbers 
     1.0020   1.0020   1.0249   1.0249   1.0213   1.0213   0.8986   0.8986
     0.1069   0.1069  -0.0354  -0.0354

          k =-0.4167-0.3368 0.0000 (  1524 PWs)   bands (ev):

    -9.8138  -9.7865  -7.7156  -7.6941  -2.0588  -2.0516   2.2478   2.5156
     6.6825   6.9235  12.9017  12.9774

     occupation numbers 
     1.0047   1.0048   1.0127   1.0128   1.0267   1.0266   0.7989   0.7723
     0.2809   0.2549  -0.0352  -0.0353

          k = 0.5000-0.1925 0.0000 (  1524 PWs)   bands (ev):

    -9.8137  -9.7865  -7.7155  -7.6940  -2.0589  -2.0517   2.2477   2.5155
     6.6826   6.9237  12.9016  12.9773

     occupation numbers 
     1.0047   1.0048   1.0127   1.0128   1.0267   1.0266   0.7989   0.7723
     0.2809   0.2548  -0.0352  -0.0353

          k =-0.4167-0.3368-0.0741 (  1515 PWs)   bands (ev):

    -9.8098  -9.7904  -7.7125  -7.6972  -2.0578  -2.0527   2.2869   2.4764
     6.7101   6.8806  12.9128  12.9663

     occupation numbers 
     1.0047   1.0047   1.0127   1.0128   1.0267   1.0266   0.7951   0.7763
     0.2779   0.2594  -0.0352  -0.0353

          k = 0.5000-0.1925-0.0741 (  1515 PWs)   bands (ev):

    -9.8097  -9.7904  -7.7124  -7.6972  -2.0578  -2.0527   2.2868   2.4763
     6.7103   6.8809  12.9127  12.9662

     occupation numbers 
     1.0047   1.0047   1.0127   1.0128   1.0267   1.0266   0.7951   0.7763
     0.2779   0.2594  -0.0352  -0.0353

          k =-0.4167-0.3368 0.1483 (  1524 PWs)   bands (ev):

    -9.8002  -9.8002  -7.7049  -7.7049  -2.0552  -2.0552   2.3816   2.3816
     6.7878   6.7878  12.9396  12.9396

     occupation numbers 
     1.0047   1.0047   1.0127   1.0127   1.0266   1.0266   0.7858   0.7858
     0.2694   0.2694  -0.0353  -0.0353

          k = 0.5000-0.1925 0.1483 (  1524 PWs)   bands (ev):

    -9.8001  -9.8001  -7.7048  -7.7048  -2.0553  -2.0553   2.3815   2.3815
     6.7880   6.7880  12.9395  12.9395

     occupation numbers 
     1.0047   1.0047   1.0127   1.0127   1.0266   1.0266   0.7858   0.7858
     0.2694   0.2694  -0.0353  -0.0353

          k = 0.3333 0.0000 0.0000 (  1509 PWs)   bands (ev):

   -12.7057 -12.6669  -2.9206  -2.9145  -1.5698  -1.5653  -0.7157  -0.2135
    10.5314  11.1423  11.2435  13.6989

     occupation numbers 
     1.0008   1.0008   1.0343   1.0343   1.0183   1.0182   0.9945   0.9744
     0.0015  -0.0155  -0.0177  -0.0347

          k = 0.3333 0.0000-0.0741 (  1516 PWs)   bands (ev):

   -12.7001 -12.6726  -2.9197  -2.9154  -1.5691  -1.5660  -0.6472  -0.2927
    10.8650  11.1570  11.2287  12.9788

     occupation numbers 
     1.0008   1.0008   1.0343   1.0343   1.0182   1.0182   0.9921   0.9779
    -0.0086  -0.0158  -0.0174  -0.0353

          k = 0.3333 0.0000 0.1483 (  1518 PWs)   bands (ev):

   -12.6864 -12.6864  -2.9175  -2.9175  -1.5676  -1.5676  -0.4752  -0.4752
    11.1924  11.1924  11.7767  11.7767

     occupation numbers 
     1.0008   1.0008   1.0343   1.0343   1.0182   1.0182   0.9855   0.9855
    -0.0166  -0.0166  -0.0269  -0.0269

          k =-0.2500-0.3368 0.0000 (  1517 PWs)   bands (ev):

   -11.6007 -11.5655  -4.6468  -4.6341  -2.6233  -2.6151   0.5551   1.0087
     9.1840   9.3285  12.0033  14.7697

     occupation numbers 
     1.0017   1.0017   1.0319   1.0320   1.0326   1.0325   0.9336   0.9035
     0.0640   0.0555  -0.0297  -0.0295

          k = 0.4167-0.0481 0.0000 (  1517 PWs)   bands (ev):

   -11.6006 -11.5655  -4.6459  -4.6332  -2.6244  -2.6161   0.5548   1.0084
     9.1849   9.3294  12.0033  14.9787

     occupation numbers 
     1.0017   1.0017   1.0319   1.0320   1.0326   1.0325   0.9336   0.9035
     0.0640   0.0555  -0.0297  -0.0281

          k =-0.2500-0.3368-0.0741 (  1515 PWs)   bands (ev):

   -11.5956 -11.5707  -4.6450  -4.6360  -2.6221  -2.6163   0.6175   0.9378
     9.2039   9.3064  12.3108  14.1788

     occupation numbers 
     1.0017   1.0017   1.0319   1.0320   1.0326   1.0325   0.9297   0.9085
     0.0628   0.0568  -0.0325  -0.0328

          k = 0.4167-0.0481-0.0741 (  1515 PWs)   bands (ev):

   -11.5955 -11.5707  -4.6441  -4.6351  -2.6232  -2.6174   0.6172   0.9375
     9.2049   9.3073  12.3107  14.1783

     occupation numbers 
     1.0017   1.0017   1.0319   1.0320   1.0326   1.0325   0.9297   0.9085
     0.0628   0.0567  -0.0325  -0.0328

          k =-0.2500-0.3368 0.1483 (  1524 PWs)   bands (ev):

   -11.5832 -11.5832  -4.6405  -4.6405  -2.6192  -2.6192   0.7734   0.7734
     9.2541   9.2541  13.1369  13.1369

     occupation numbers 
     1.0017   1.0017   1.0320   1.0320   1.0325   1.0325   0.9197   0.9197
     0.0598   0.0598  -0.0355  -0.0355

          k = 0.4167-0.0481 0.1483 (  1524 PWs)   bands (ev):

   -11.5832 -11.5832  -4.6396  -4.6396  -2.6203  -2.6203   0.7731   0.7731
     9.2551   9.2551  13.1367  13.1367

     occupation numbers 
     1.0017   1.0017   1.0320   1.0320   1.0325   1.0325   0.9197   0.9197
     0.0598   0.0598  -0.0355  -0.0355

          k =-0.3333-0.3849 0.0000 (  1522 PWs)   bands (ev):

   -10.2286 -10.1983  -6.5524  -6.5334  -3.1998  -3.1893   2.0186   2.3797
     7.2591   7.4545  13.8519  14.7668

     occupation numbers 
     1.0037   1.0038   1.0196   1.0197   1.0352   1.0352   0.8207   0.7860
     0.2201   0.2008  -0.0342  -0.0295

          k = 0.5000-0.0962 0.0000 (  1522 PWs)   bands (ev):

   -10.2285 -10.1982  -6.5521  -6.5331  -3.2002  -3.1897   2.0183   2.3794
     7.2598   7.4552  13.8517  14.7664

     occupation numbers 
     1.0037   1.0038   1.0196   1.0197   1.0352   1.0352   0.8207   0.7860
     0.2200   0.2008  -0.0342  -0.0295

          k =-0.3333-0.3849-0.0741 (  1525 PWs)   bands (ev):

   -10.2242 -10.2027  -6.5496  -6.5362  -3.1983  -3.1909   2.0693   2.3245
     7.2848   7.4232  14.0976  14.7731

     occupation numbers 
     1.0037   1.0038   1.0196   1.0197   1.0352   1.0352   0.8159   0.7914
     0.2175   0.2039  -0.0331  -0.0294

          k = 0.5000-0.0962-0.0741 (  1525 PWs)   bands (ev):

   -10.2241 -10.2027  -6.5493  -6.5359  -3.1986  -3.1912   2.0690   2.3242
     7.2855   7.4239  14.0973  14.7727

     occupation numbers 
     1.0037   1.0038   1.0196   1.0197   1.0352   1.0352   0.8160   0.7915
     0.2175   0.2038  -0.0331  -0.0295

          k =-0.3333-0.3849 0.1483 (  1520 PWs)   bands (ev):

   -10.2135 -10.2135  -6.5429  -6.5429  -3.1946  -3.1946   2.1947   2.1947
     7.3512   7.3512  14.6559  14.6560

     occupation numbers 
     1.0038   1.0038   1.0197   1.0197   1.0352   1.0352   0.8041   0.8041
     0.2109   0.2109  -0.0302  -0.0302

          k = 0.5000-0.0962 0.1483 (  1520 PWs)   bands (ev):

   -10.2135 -10.2135  -6.5426  -6.5426  -3.1949  -3.1949   2.1943   2.1943
     7.3519   7.3519  14.6551  14.6551

     occupation numbers 
     1.0038   1.0038   1.0197   1.0197   1.0352   1.0352   0.8041   0.8041
     0.2109   0.2109  -0.0302  -0.0302

          k =-0.4167-0.4330 0.0000 (  1527 PWs)   bands (ev):

    -8.9959  -8.9816  -7.9725  -7.9619  -3.3848  -3.3738   2.9950   3.1653
     6.2358   6.3678  14.6676  14.8083

     occupation numbers 
     1.0071   1.0072   1.0114   1.0114   1.0354   1.0354   0.7215   0.7026
     0.3315   0.3163  -0.0301  -0.0292

          k =-0.4167-0.4330-0.0741 (  1526 PWs)   bands (ev):

    -8.9938  -8.9837  -7.9711  -7.9635  -3.3832  -3.3754   3.0216   3.1422
     6.2482   6.3419  14.6859  14.7846

     occupation numbers 
     1.0071   1.0072   1.0114   1.0114   1.0354   1.0354   0.7186   0.7052
     0.3301   0.3193  -0.0300  -0.0294

          k =-0.4167-0.4330 0.1483 (  1532 PWs)   bands (ev):

    -8.9887  -8.9887  -7.9674  -7.9674  -3.3793  -3.3793   3.0837   3.0837
     6.2883   6.2883  14.7321  14.7321

     occupation numbers 
     1.0071   1.0071   1.0114   1.0114   1.0354   1.0354   0.7117   0.7117
     0.3254   0.3254  -0.0297  -0.0297

          k = 0.5000-0.0000 0.0000 (  1525 PWs)   bands (ev):

   -10.3757 -10.3447  -5.6787  -5.6695  -4.0992  -4.0921   1.9216   2.3116
     7.5808   7.7181  13.6509  15.3963

     occupation numbers 
     1.0034   1.0035   1.0255   1.0255   1.0343   1.0344   0.8295   0.7927
     0.1887   0.1759  -0.0348  -0.0254

          k = 0.5000-0.0000-0.0741 (  1530 PWs)   bands (ev):

   -10.3712 -10.3493  -5.6774  -5.6708  -4.0982  -4.0932   1.9758   2.2514
     7.6008   7.6978  13.8812  15.0953

     occupation numbers 
     1.0034   1.0035   1.0255   1.0255   1.0343   1.0344   0.8246   0.7986
     0.1868   0.1778  -0.0340  -0.0274

          k = 0.5000-0.0000 0.1483 (  1534 PWs)   bands (ev):

   -10.3603 -10.3603  -5.6741  -5.6741  -4.0957  -4.0957   2.1106   2.1106
     7.6492   7.6492  14.4603  14.4603

     occupation numbers 
     1.0035   1.0035   1.0255   1.0255   1.0344   1.0344   0.8121   0.8121
     0.1823   0.1823  -0.0313  -0.0313

          k =-0.3333-0.4811 0.0000 (  1531 PWs)   bands (ev):

    -8.9575  -8.9330  -7.0970  -7.0812  -4.8063  -4.7945   3.3591   3.6251
     6.0732   6.2043  15.5884  15.6463

     occupation numbers 
     1.0073   1.0073   1.0162   1.0163   1.0310   1.0311   0.6806   0.6497
     0.3505   0.3352  -0.0241  -0.0237

          k = 0.5833-0.0481 0.0000 (  1531 PWs)   bands (ev):

    -8.9576  -8.9331  -7.0965  -7.0806  -4.8068  -4.7950   3.3585   3.6245
     6.0739   6.2052  15.5883  15.6455

     occupation numbers 
     1.0073   1.0073   1.0162   1.0163   1.0310   1.0311   0.6807   0.6497
     0.3504   0.3351  -0.0241  -0.0237

          k =-0.3333-0.4811-0.0741 (  1531 PWs)   bands (ev):

    -8.9539  -8.9366  -7.0947  -7.0835  -4.8046  -4.7963   3.3977   3.5859
     6.0904   6.1831  15.4163  15.5084

     occupation numbers 
     1.0073   1.0073   1.0162   1.0163   1.0310   1.0311   0.6762   0.6543
     0.3485   0.3376  -0.0252  -0.0246

          k = 0.5833-0.0481-0.0741 (  1531 PWs)   bands (ev):

    -8.9540  -8.9368  -7.0941  -7.0830  -4.8051  -4.7968   3.3971   3.5853
     6.0911   6.1840  15.4161  15.5077

     occupation numbers 
     1.0073   1.0073   1.0162   1.0163   1.0310   1.0311   0.6762   0.6543
     0.3484   0.3375  -0.0252  -0.0246

          k =-0.3333-0.4811 0.1483 (  1544 PWs)   bands (ev):

    -8.9453  -8.9453  -7.0892  -7.0892  -4.8005  -4.8005   3.4915   3.4915
     6.1347   6.1347  15.3516  15.3517

     occupation numbers 
     1.0073   1.0073   1.0162   1.0162   1.0311   1.0311   0.6653   0.6653
     0.3433   0.3433  -0.0257  -0.0257

          k = 0.5833-0.0481 0.1483 (  1544 PWs)   bands (ev):

    -8.9454  -8.9454  -7.0886  -7.0886  -4.8010  -4.8010   3.4909   3.4909
     6.1356   6.1356  15.3512  15.3512

     occupation numbers 
     1.0073   1.0073   1.0162   1.0162   1.0311   1.0311   0.6654   0.6654
     0.3432   0.3432  -0.0257  -0.0257

     the Fermi energy is     4.8499 ev

!    total energy              =     -49.59312751 Ry
     estimated scf accuracy    <          1.2E-10 Ry
     smearing contrib. (-TS)   =       0.13158230 Ry
     internal energy E=F+TS    =     -49.72470981 Ry

     The total energy is F=E-TS. E is the sum of the following terms:
     one-electron contribution =     -29.97697551 Ry
     hartree contribution      =      21.80570940 Ry
     xc contribution           =     -18.55014117 Ry
     ewald contribution        =     -23.00330253 Ry

     convergence has been achieved in  13 iterations

     Forces acting on atoms (cartesian axes, Ry/au):

     atom    1 type  1   force =     0.00000000   -0.00055263    0.00000000
     atom    2 type  1   force =     0.00000000    0.00055263    0.00000000
     atom    3 type  1   force =    -0.00000000    0.00055334    0.00000000
     atom    4 type  1   force =     0.00000000   -0.00055334    0.00000000
     The non-local contrib.  to forces
     atom    1 type  1   force =     0.00000000   -0.00034851    0.00000000
     atom    2 type  1   force =     0.00000000    0.00034851    0.00000000
     atom    3 type  1   force =    -0.00000000    0.00036352    0.00000000
     atom    4 type  1   force =     0.00000000   -0.00036352    0.00000000
     The ionic contribution  to forces
     atom    1 type  1   force =    -0.00000000   -0.00098176   -0.00000000
     atom    2 type  1   force =    -0.00000000    0.00098176    0.00000000
     atom    3 type  1   force =    -0.00000000    0.00098202   -0.00000000
     atom    4 type  1   force =     0.00000000   -0.00098202    0.00000000
     The local contribution  to forces
     atom    1 type  1   force =    -0.00000000    0.00077273    0.00000000
     atom    2 type  1   force =     0.00000000   -0.00077273    0.00000000
     atom    3 type  1   force =    -0.00000000   -0.00078677    0.00000000
     atom    4 type  1   force =    -0.00000000    0.00078677    0.00000000
     The core correction contribution to forces
     atom    1 type  1   force =     0.00000000    0.00000754   -0.00000000
     atom    2 type  1   force =    -0.00000000   -0.00000754   -0.00000000
     atom    3 type  1   force =     0.00000000   -0.00000716   -0.00000000
     atom    4 type  1   force =     0.00000000    0.00000716   -0.00000000
     The Hubbard contrib.    to forces
     atom    1 type  1   force =     0.00000000    0.00000000    0.00000000
     atom    2 type  1   force =     0.00000000    0.00000000    0.00000000
     atom    3 type  1   force =     0.00000000    0.00000000    0.00000000
     atom    4 type  1   force =     0.00000000    0.00000000    0.00000000
     The SCF correction term to forces
     atom    1 type  1   force =    -0.00000000   -0.00000263   -0.00000000
     atom    2 type  1   force =    -0.00000000    0.00000263   -0.00000000
     atom    3 type  1   force =     0.00000000    0.00000173   -0.00000000
     atom    4 type  1   force =     0.00000000   -0.00000173   -0.00000000

     Total force =     0.001106     Total SCF correction =     0.000004


     Computing stress (Cartesian axis) and pressure

          total   stress  (Ry/bohr**3)                   (kbar)     P=       -3.62
  -0.00001462   0.00000000   0.00000000           -2.15        0.00        0.00
   0.00000000  -0.00001221   0.00000000            0.00       -1.80        0.00
   0.00000000   0.00000000  -0.00004700            0.00        0.00       -6.91

     kinetic stress (kbar)   9272.58      0.00      0.00
                                0.00   9272.47      0.00
                                0.00      0.00  10533.55

     local   stress (kbar) -26803.72     -0.00      0.00
                               -0.00 -26808.52      0.00
                                0.00      0.00  27108.24

     nonloc. stress (kbar)   1812.53      0.00      0.00
                                0.00   1812.72      0.00
                                0.00      0.00   1657.71

     hartree stress (kbar)   9969.80     -0.00     -0.00
                               -0.00   9970.36     -0.00
                               -0.00     -0.00  -9139.97

     exc-cor stress (kbar)   -166.78      0.00      0.00
                                0.00   -166.74     -0.00
                                0.00     -0.00   -270.94

     corecor stress (kbar)  -2235.41     -0.00     -0.00
                               -0.00  -2235.47     -0.00
                               -0.00     -0.00  -2199.91

     ewald   stress (kbar)   8148.85     -0.00     -0.00
                               -0.00   8153.39      0.00
                               -0.00      0.00 -27695.59

     hubbard stress (kbar)      0.00      0.00      0.00
                                0.00      0.00      0.00
                                0.00      0.00      0.00

     DFT-D   stress (kbar)      0.00      0.00      0.00
                                0.00      0.00      0.00
                                0.00      0.00      0.00

     XDM     stress (kbar)      0.00      0.00      0.00
                                0.00      0.00      0.00
                                0.00      0.00      0.00

     dft-nl  stress (kbar)      0.00      0.00      0.00
                                0.00      0.00      0.00
                                0.00      0.00      0.00

     TS-vdW  stress (kbar)      0.00      0.00      0.00
                                0.00      0.00      0.00
                                0.00      0.00      0.00



     Writing output data file ./tmp/C.save/

     init_run     :      3.16s CPU      3.36s WALL (       1 calls)
     electrons    :     87.02s CPU     91.95s WALL (       1 calls)
     forces       :      1.63s CPU      1.87s WALL (       1 calls)
     stress       :      5.41s CPU      5.74s WALL (       1 calls)

     Called by init_run:
     wfcinit      :      2.51s CPU      2.68s WALL (       1 calls)
     wfcinit:atom :      0.08s CPU      0.09s WALL (     129 calls)
     wfcinit:wfcr :      1.96s CPU      2.10s WALL (     129 calls)
     potinit      :      0.17s CPU      0.18s WALL (       1 calls)
     hinit0       :      0.40s CPU      0.41s WALL (       1 calls)

     Called by electrons:
     c_bands      :     71.07s CPU     75.05s WALL (      13 calls)
     sum_band     :     13.31s CPU     14.11s WALL (      13 calls)
     v_of_rho     :      1.85s CPU      1.95s WALL (      14 calls)
     v_h          :      0.09s CPU      0.09s WALL (      14 calls)
     v_xc         :      2.14s CPU      2.30s WALL (      16 calls)
     newd         :      0.57s CPU      0.62s WALL (      14 calls)
     mix_rho      :      0.21s CPU      0.22s WALL (      13 calls)

     Called by c_bands:
     init_us_2    :      3.17s CPU      3.38s WALL (    3741 calls)
     cegterg      :     66.42s CPU     70.11s WALL (    1677 calls)

     Called by sum_band:
     sum_band:wei :      0.09s CPU      0.09s WALL (      13 calls)
     sum_band:loo :     12.12s CPU     12.84s WALL (      13 calls)
     sum_band:buf :      0.14s CPU      0.15s WALL (    1677 calls)
     sum_band:ini :      1.34s CPU      1.42s WALL (    1677 calls)
     sum_band:cal :      1.08s CPU      1.13s WALL (    1677 calls)
     sum_band:bec :      0.04s CPU      0.05s WALL (    1677 calls)
     addusdens    :      0.58s CPU      0.62s WALL (      13 calls)
     addusd:skk   :      0.02s CPU      0.02s WALL (      13 calls)
     addusd:dgemm :      0.13s CPU      0.14s WALL (      13 calls)
     addusd:qvan2 :      0.26s CPU      0.27s WALL (      13 calls)

     Called by *egterg:
     cdiaghg      :      2.27s CPU      2.39s WALL (    6062 calls)
     cegterg:over :      3.09s CPU      3.29s WALL (    4385 calls)
     cegterg:upda :      2.00s CPU      2.08s WALL (    4385 calls)
     cegterg:last :      3.11s CPU      3.28s WALL (    3208 calls)
     h_psi        :     52.12s CPU     55.10s WALL (    6191 calls)
     s_psi        :      2.92s CPU      3.12s WALL (    6191 calls)
     g_psi        :      0.65s CPU      0.69s WALL (    4385 calls)

     Called by h_psi:
     h_psi:calbec :      3.35s CPU      3.52s WALL (    6191 calls)
     vloc_psi     :     45.21s CPU     47.82s WALL (    6191 calls)
     add_vuspsi   :      3.07s CPU      3.26s WALL (    6191 calls)

     General routines
     calbec       :      4.89s CPU      5.28s WALL (    8513 calls)
     fft          :      1.23s CPU      1.31s WALL (     205 calls)
     ffts         :      0.03s CPU      0.03s WALL (      27 calls)
     fftw         :     43.06s CPU     45.62s WALL (  125940 calls)
     interpolate  :      0.11s CPU      0.11s WALL (      14 calls)

     Parallel routines

     PWSCF        :   1m37.43s CPU   1m43.27s WALL


   This run was terminated on:  17:49: 1  23May2022            

=------------------------------------------------------------------------------=
   JOB DONE.
=------------------------------------------------------------------------------=
