
     Program PWSCF v.6.7MaX starts on 26May2022 at 22:40:19 

     This program is part of the open-source Quantum ESPRESSO suite
     for quantum simulation of materials; please cite
         "P. Giannozzi et al., J. Phys.:Condens. Matter 21 395502 (2009);
         "P. Giannozzi et al., J. Phys.:Condens. Matter 29 465901 (2017);
          URL http://www.quantum-espresso.org", 
     in publications or presentations arising from this work. More details at
     http://www.quantum-espresso.org/quote

     Parallel version (MPI), running on     1 processors

     MPI processes distributed on     1 nodes
     Waiting for input...
     Reading input from standard input

     Current dimensions of program PWSCF are:
     Max number of different atomic species (ntypx) = 10
     Max number of k-points (npk) =  40000
     Max angular momentum in pseudopotentials (lmaxx) =  3

     Atomic positions and unit cell read from directory:
     ./tmp/C_k18.save/
     Atomic positions from file used, from input discarded


     Subspace diagonalization in iterative solution of the eigenvalue problem:
     a serial algorithm will be used

     Message from routine setup:
     using ibrav=0 with symmetry is DISCOURAGED, use correct ibrav instead

     G-vector sticks info
     --------------------
     sticks:   dense  smooth     PW     G-vecs:    dense   smooth      PW
     Sum         547     265     85                34133    11995    2223



     bravais-lattice index     =            0
     lattice parameter (alat)  =       4.6676  a.u.
     unit-cell volume          =     295.8966 (a.u.)^3
     number of atoms/cell      =            4
     number of atomic types    =            1
     number of electrons       =        16.00
     number of Kohn-Sham states=           16
     kinetic-energy cutoff     =      45.0000  Ry
     charge density cutoff     =     360.0000  Ry
     Exchange-correlation= PBE
                           (   1   4   3   4   0   0   0)

     celldm(1)=   4.667624  celldm(2)=   0.000000  celldm(3)=   0.000000
     celldm(4)=   0.000000  celldm(5)=   0.000000  celldm(6)=   0.000000

     crystal axes: (cart. coord. in units of alat)
               a(1) = (   0.998113   0.000000   0.000000 )  
               a(2) = (  -0.499057   0.864391   0.000000 )  
               a(3) = (   0.000000   0.000000   3.372580 )  

     reciprocal axes: (cart. coord. in units 2 pi/alat)
               b(1) = (  1.001890  0.578442 -0.000000 )  
               b(2) = (  0.000000  1.156883  0.000000 )  
               b(3) = (  0.000000 -0.000000  0.296509 )  


     PseudoPot. # 1 for C  read from file:
     /home/max/Desktop/graphite_DFT/Pseudo/C.pbe-n-rrkjus_psl.1.0.0.UPF
     MD5 check sum: 1fdd950c42eb37d8afe3dd2f8d12311e
     Pseudo is Ultrasoft + core correction, Zval =  4.0
     Generated using &quot;atomic&quot; code by A. Dal Corso  v.6.3MaX
     Using radial grid of 1073 points,  4 beta functions with: 
                l(1) =   0
                l(2) =   0
                l(3) =   1
                l(4) =   1
     Q(r) pseudized with 0 coefficients 


     atomic species   valence    mass     pseudopotential
        C              4.00    12.01100     C ( 1.00)

      8 Sym. Ops., with inversion, found ( 4 have fractional translation)


                                    s                        frac. trans.

      isym =  1     identity                                     

 cryst.   s( 1) = (     1          0          0      )
                  (     0          1          0      )
                  (     0          0          1      )

 cart.    s( 1) = (  1.0000000  0.0000000  0.0000000 )
                  (  0.0000000  1.0000000  0.0000000 )
                  (  0.0000000  0.0000000  1.0000000 )


      isym =  2     180 deg rotation - cart. axis [0,0,1]        

 cryst.   s( 2) = (    -1          0          0      )    f =(  0.0000000 )
                  (     0         -1          0      )       (  0.0000000 )
                  (     0          0          1      )       ( -0.5000000 )

 cart.    s( 2) = ( -1.0000000  0.0000000  0.0000000 )    f =(  0.0000000 )
                  (  0.0000000 -1.0000000  0.0000000 )       (  0.0000000 )
                  (  0.0000000  0.0000000  1.0000000 )       ( -1.6862899 )


      isym =  3     180 deg rotation - cart. axis [0,1,0]        

 cryst.   s( 3) = (    -1          0          0      )    f =(  0.0000000 )
                  (     1          1          0      )       (  0.0000000 )
                  (     0          0         -1      )       (  0.5000000 )

 cart.    s( 3) = ( -1.0000000  0.0000000  0.0000000 )    f =(  0.0000000 )
                  (  0.0000000  1.0000000  0.0000000 )       (  0.0000000 )
                  (  0.0000000  0.0000000 -1.0000000 )       (  1.6862899 )


      isym =  4     180 deg rotation - cart. axis [1,0,0]        

 cryst.   s( 4) = (     1          0          0      )
                  (    -1         -1          0      )
                  (     0          0         -1      )

 cart.    s( 4) = (  1.0000000  0.0000000  0.0000000 )
                  (  0.0000000 -1.0000000  0.0000000 )
                  (  0.0000000  0.0000000 -1.0000000 )


      isym =  5     inversion                                    

 cryst.   s( 5) = (    -1          0          0      )
                  (     0         -1          0      )
                  (     0          0         -1      )

 cart.    s( 5) = ( -1.0000000  0.0000000  0.0000000 )
                  (  0.0000000 -1.0000000  0.0000000 )
                  (  0.0000000  0.0000000 -1.0000000 )


      isym =  6     inv. 180 deg rotation - cart. axis [0,0,1]   

 cryst.   s( 6) = (     1          0          0      )    f =(  0.0000000 )
                  (     0          1          0      )       (  0.0000000 )
                  (     0          0         -1      )       (  0.5000000 )

 cart.    s( 6) = (  1.0000000  0.0000000  0.0000000 )    f =(  0.0000000 )
                  (  0.0000000  1.0000000  0.0000000 )       (  0.0000000 )
                  (  0.0000000  0.0000000 -1.0000000 )       (  1.6862899 )


      isym =  7     inv. 180 deg rotation - cart. axis [0,1,0]   

 cryst.   s( 7) = (     1          0          0      )    f =(  0.0000000 )
                  (    -1         -1          0      )       (  0.0000000 )
                  (     0          0          1      )       ( -0.5000000 )

 cart.    s( 7) = (  1.0000000  0.0000000  0.0000000 )    f =(  0.0000000 )
                  (  0.0000000 -1.0000000  0.0000000 )       (  0.0000000 )
                  (  0.0000000  0.0000000  1.0000000 )       ( -1.6862899 )


      isym =  8     inv. 180 deg rotation - cart. axis [1,0,0]   

 cryst.   s( 8) = (    -1          0          0      )
                  (     1          1          0      )
                  (     0          0          1      )

 cart.    s( 8) = ( -1.0000000  0.0000000  0.0000000 )
                  (  0.0000000  1.0000000  0.0000000 )
                  (  0.0000000  0.0000000  1.0000000 )


   Cartesian axes

     site n.     atom                  positions (alat units)
         1           C   tau(   1) = (   0.0000000  -0.0000396   0.8431450  )
         2           C   tau(   2) = (   0.0000000   0.0000396   2.5294349  )
         3           C   tau(   3) = (   0.0000000   0.5762433   0.8431450  )
         4           C   tau(   4) = (   0.4990566   0.2881481   2.5294349  )

   Crystallographic axes

     site n.     atom                  positions (cryst. coord.)
         1           C   tau(   1) = ( -0.0000229 -0.0000458  0.2500000  )
         2           C   tau(   2) = (  0.0000229  0.0000458  0.7500000  )
         3           C   tau(   3) = (  0.3333231  0.6666463  0.2500000  )
         4           C   tau(   4) = (  0.6666769  0.3333537  0.7500000  )

     number of k points=   364 (tetrahedron method)
                       cart. coord. in units 2pi/alat
        k(    1) = (   0.0000000   0.0000000   0.0000000), wk =   0.0010288
        k(    2) = (   0.0000000   0.0000000   0.0494182), wk =   0.0020576
        k(    3) = (   0.0000000   0.0000000   0.0988363), wk =   0.0020576
        k(    4) = (   0.0000000   0.0000000  -0.1482545), wk =   0.0010288
        k(    5) = (   0.0000000   0.0642713   0.0000000), wk =   0.0020576
        k(    6) = (   0.0000000   0.0642713   0.0494182), wk =   0.0041152
        k(    7) = (   0.0000000   0.0642713   0.0988363), wk =   0.0041152
        k(    8) = (   0.0000000   0.0642713  -0.1482545), wk =   0.0020576
        k(    9) = (   0.0000000   0.1285426   0.0000000), wk =   0.0020576
        k(   10) = (   0.0000000   0.1285426   0.0494182), wk =   0.0041152
        k(   11) = (   0.0000000   0.1285426   0.0988363), wk =   0.0041152
        k(   12) = (   0.0000000   0.1285426  -0.1482545), wk =   0.0020576
        k(   13) = (   0.0000000   0.1928139   0.0000000), wk =   0.0020576
        k(   14) = (   0.0000000   0.1928139   0.0494182), wk =   0.0041152
        k(   15) = (   0.0000000   0.1928139   0.0988363), wk =   0.0041152
        k(   16) = (   0.0000000   0.1928139  -0.1482545), wk =   0.0020576
        k(   17) = (   0.0000000   0.2570852   0.0000000), wk =   0.0020576
        k(   18) = (   0.0000000   0.2570852   0.0494182), wk =   0.0041152
        k(   19) = (   0.0000000   0.2570852   0.0988363), wk =   0.0041152
        k(   20) = (   0.0000000   0.2570852  -0.1482545), wk =   0.0020576
        k(   21) = (   0.0000000   0.3213565   0.0000000), wk =   0.0020576
        k(   22) = (   0.0000000   0.3213565   0.0494182), wk =   0.0041152
        k(   23) = (   0.0000000   0.3213565   0.0988363), wk =   0.0041152
        k(   24) = (   0.0000000   0.3213565  -0.1482545), wk =   0.0020576
        k(   25) = (   0.0000000   0.3856278   0.0000000), wk =   0.0020576
        k(   26) = (   0.0000000   0.3856278   0.0494182), wk =   0.0041152
        k(   27) = (   0.0000000   0.3856278   0.0988363), wk =   0.0041152
        k(   28) = (   0.0000000   0.3856278  -0.1482545), wk =   0.0020576
        k(   29) = (   0.0000000   0.4498991   0.0000000), wk =   0.0020576
        k(   30) = (   0.0000000   0.4498991   0.0494182), wk =   0.0041152
        k(   31) = (   0.0000000   0.4498991   0.0988363), wk =   0.0041152
        k(   32) = (   0.0000000   0.4498991  -0.1482545), wk =   0.0020576
        k(   33) = (   0.0000000   0.5141704   0.0000000), wk =   0.0020576
        k(   34) = (   0.0000000   0.5141704   0.0494182), wk =   0.0041152
        k(   35) = (   0.0000000   0.5141704   0.0988363), wk =   0.0041152
        k(   36) = (   0.0000000   0.5141704  -0.1482545), wk =   0.0020576
        k(   37) = (   0.0000000  -0.5784417   0.0000000), wk =   0.0010288
        k(   38) = (   0.0000000  -0.5784417   0.0494182), wk =   0.0020576
        k(   39) = (   0.0000000  -0.5784417   0.0988363), wk =   0.0020576
        k(   40) = (   0.0000000  -0.5784417  -0.1482545), wk =   0.0010288
        k(   41) = (   0.0556606   0.0964069   0.0000000), wk =   0.0041152
        k(   42) = (   0.0556606   0.0964069   0.0494182), wk =   0.0082305
        k(   43) = (   0.0556606   0.0964069   0.0988363), wk =   0.0082305
        k(   44) = (   0.0556606   0.0964069  -0.1482545), wk =   0.0041152
        k(   45) = (   0.0556606   0.1606782   0.0000000), wk =   0.0041152
        k(   46) = (   0.0556606   0.1606782   0.0494182), wk =   0.0082305
        k(   47) = (   0.0556606   0.1606782   0.0988363), wk =   0.0082305
        k(   48) = (   0.0556606   0.1606782  -0.1482545), wk =   0.0041152
        k(   49) = (   0.0556606   0.2249495   0.0000000), wk =   0.0041152
        k(   50) = (   0.0556606   0.2249495   0.0494182), wk =   0.0082305
        k(   51) = (   0.0556606   0.2249495   0.0988363), wk =   0.0082305
        k(   52) = (   0.0556606   0.2249495  -0.1482545), wk =   0.0041152
        k(   53) = (   0.0556606   0.2892208   0.0000000), wk =   0.0041152
        k(   54) = (   0.0556606   0.2892208   0.0494182), wk =   0.0082305
        k(   55) = (   0.0556606   0.2892208   0.0988363), wk =   0.0082305
        k(   56) = (   0.0556606   0.2892208  -0.1482545), wk =   0.0041152
        k(   57) = (   0.0556606   0.3534921   0.0000000), wk =   0.0041152
        k(   58) = (   0.0556606   0.3534921   0.0494182), wk =   0.0082305
        k(   59) = (   0.0556606   0.3534921   0.0988363), wk =   0.0082305
        k(   60) = (   0.0556606   0.3534921  -0.1482545), wk =   0.0041152
        k(   61) = (   0.0556606   0.4177634   0.0000000), wk =   0.0041152
        k(   62) = (   0.0556606   0.4177634   0.0494182), wk =   0.0082305
        k(   63) = (   0.0556606   0.4177634   0.0988363), wk =   0.0082305
        k(   64) = (   0.0556606   0.4177634  -0.1482545), wk =   0.0041152
        k(   65) = (   0.0556606   0.4820347   0.0000000), wk =   0.0041152
        k(   66) = (   0.0556606   0.4820347   0.0494182), wk =   0.0082305
        k(   67) = (   0.0556606   0.4820347   0.0988363), wk =   0.0082305
        k(   68) = (   0.0556606   0.4820347  -0.1482545), wk =   0.0041152
        k(   69) = (   0.0556606   0.5463060   0.0000000), wk =   0.0041152
        k(   70) = (   0.0556606   0.5463060   0.0494182), wk =   0.0082305
        k(   71) = (   0.0556606   0.5463060   0.0988363), wk =   0.0082305
        k(   72) = (   0.0556606   0.5463060  -0.1482545), wk =   0.0041152
        k(   73) = (   0.1113212   0.1928139   0.0000000), wk =   0.0041152
        k(   74) = (   0.1113212   0.1928139   0.0494182), wk =   0.0082305
        k(   75) = (   0.1113212   0.1928139   0.0988363), wk =   0.0082305
        k(   76) = (   0.1113212   0.1928139  -0.1482545), wk =   0.0041152
        k(   77) = (   0.1113212   0.2570852   0.0000000), wk =   0.0041152
        k(   78) = (   0.1113212   0.2570852   0.0494182), wk =   0.0082305
        k(   79) = (   0.1113212   0.2570852   0.0988363), wk =   0.0082305
        k(   80) = (   0.1113212   0.2570852  -0.1482545), wk =   0.0041152
        k(   81) = (   0.1113212   0.3213565   0.0000000), wk =   0.0041152
        k(   82) = (   0.1113212   0.3213565   0.0494182), wk =   0.0082305
        k(   83) = (   0.1113212   0.3213565   0.0988363), wk =   0.0082305
        k(   84) = (   0.1113212   0.3213565  -0.1482545), wk =   0.0041152
        k(   85) = (   0.1113212   0.3856278   0.0000000), wk =   0.0041152
        k(   86) = (   0.1113212   0.3856278   0.0494182), wk =   0.0082305
        k(   87) = (   0.1113212   0.3856278   0.0988363), wk =   0.0082305
        k(   88) = (   0.1113212   0.3856278  -0.1482545), wk =   0.0041152
        k(   89) = (   0.1113212   0.4498991   0.0000000), wk =   0.0041152
        k(   90) = (   0.1113212   0.4498991   0.0494182), wk =   0.0082305
        k(   91) = (   0.1113212   0.4498991   0.0988363), wk =   0.0082305
        k(   92) = (   0.1113212   0.4498991  -0.1482545), wk =   0.0041152
        k(   93) = (   0.1113212   0.5141704   0.0000000), wk =   0.0041152
        k(   94) = (   0.1113212   0.5141704   0.0494182), wk =   0.0082305
        k(   95) = (   0.1113212   0.5141704   0.0988363), wk =   0.0082305
        k(   96) = (   0.1113212   0.5141704  -0.1482545), wk =   0.0041152
        k(   97) = (   0.1113212   0.5784417   0.0000000), wk =   0.0020576
        k(   98) = (   0.1113212   0.5784417   0.0494182), wk =   0.0041152
        k(   99) = (   0.1113212   0.5784417   0.0988363), wk =   0.0041152
        k(  100) = (   0.1113212   0.5784417  -0.1482545), wk =   0.0020576
        k(  101) = (   0.1669817   0.2892208   0.0000000), wk =   0.0041152
        k(  102) = (   0.1669817   0.2892208   0.0494182), wk =   0.0082305
        k(  103) = (   0.1669817   0.2892208   0.0988363), wk =   0.0082305
        k(  104) = (   0.1669817   0.2892208  -0.1482545), wk =   0.0041152
        k(  105) = (   0.1669817   0.3534921   0.0000000), wk =   0.0041152
        k(  106) = (   0.1669817   0.3534921   0.0494182), wk =   0.0082305
        k(  107) = (   0.1669817   0.3534921   0.0988363), wk =   0.0082305
        k(  108) = (   0.1669817   0.3534921  -0.1482545), wk =   0.0041152
        k(  109) = (   0.1669817   0.4177634   0.0000000), wk =   0.0041152
        k(  110) = (   0.1669817   0.4177634   0.0494182), wk =   0.0082305
        k(  111) = (   0.1669817   0.4177634   0.0988363), wk =   0.0082305
        k(  112) = (   0.1669817   0.4177634  -0.1482545), wk =   0.0041152
        k(  113) = (   0.1669817   0.4820347   0.0000000), wk =   0.0041152
        k(  114) = (   0.1669817   0.4820347   0.0494182), wk =   0.0082305
        k(  115) = (   0.1669817   0.4820347   0.0988363), wk =   0.0082305
        k(  116) = (   0.1669817   0.4820347  -0.1482545), wk =   0.0041152
        k(  117) = (   0.1669817   0.5463060   0.0000000), wk =   0.0041152
        k(  118) = (   0.1669817   0.5463060   0.0494182), wk =   0.0082305
        k(  119) = (   0.1669817   0.5463060   0.0988363), wk =   0.0082305
        k(  120) = (   0.1669817   0.5463060  -0.1482545), wk =   0.0041152
        k(  121) = (   0.2226423   0.3856278   0.0000000), wk =   0.0041152
        k(  122) = (   0.2226423   0.3856278   0.0494182), wk =   0.0082305
        k(  123) = (   0.2226423   0.3856278   0.0988363), wk =   0.0082305
        k(  124) = (   0.2226423   0.3856278  -0.1482545), wk =   0.0041152
        k(  125) = (   0.2226423   0.4498991   0.0000000), wk =   0.0041152
        k(  126) = (   0.2226423   0.4498991   0.0494182), wk =   0.0082305
        k(  127) = (   0.2226423   0.4498991   0.0988363), wk =   0.0082305
        k(  128) = (   0.2226423   0.4498991  -0.1482545), wk =   0.0041152
        k(  129) = (   0.2226423   0.5141704   0.0000000), wk =   0.0041152
        k(  130) = (   0.2226423   0.5141704   0.0494182), wk =   0.0082305
        k(  131) = (   0.2226423   0.5141704   0.0988363), wk =   0.0082305
        k(  132) = (   0.2226423   0.5141704  -0.1482545), wk =   0.0041152
        k(  133) = (   0.2226423   0.5784417   0.0000000), wk =   0.0020576
        k(  134) = (   0.2226423   0.5784417   0.0494182), wk =   0.0041152
        k(  135) = (   0.2226423   0.5784417   0.0988363), wk =   0.0041152
        k(  136) = (   0.2226423   0.5784417  -0.1482545), wk =   0.0020576
        k(  137) = (   0.2783029   0.4820347   0.0000000), wk =   0.0041152
        k(  138) = (   0.2783029   0.4820347   0.0494182), wk =   0.0082305
        k(  139) = (   0.2783029   0.4820347   0.0988363), wk =   0.0082305
        k(  140) = (   0.2783029   0.4820347  -0.1482545), wk =   0.0041152
        k(  141) = (   0.2783029   0.5463060   0.0000000), wk =   0.0041152
        k(  142) = (   0.2783029   0.5463060   0.0494182), wk =   0.0082305
        k(  143) = (   0.2783029   0.5463060   0.0988363), wk =   0.0082305
        k(  144) = (   0.2783029   0.5463060  -0.1482545), wk =   0.0041152
        k(  145) = (   0.3339635   0.5784417   0.0000000), wk =   0.0020576
        k(  146) = (   0.3339635   0.5784417   0.0494182), wk =   0.0041152
        k(  147) = (   0.3339635   0.5784417   0.0988363), wk =   0.0041152
        k(  148) = (   0.3339635   0.5784417  -0.1482545), wk =   0.0020576
        k(  149) = (  -0.0556606  -0.0321356   0.0000000), wk =   0.0041152
        k(  150) = (  -0.0556606  -0.0321356  -0.0494182), wk =   0.0082305
        k(  151) = (  -0.0556606  -0.0321356  -0.0988363), wk =   0.0082305
        k(  152) = (  -0.0556606  -0.0321356   0.1482545), wk =   0.0041152
        k(  153) = (  -0.1113212  -0.0642713   0.0000000), wk =   0.0041152
        k(  154) = (  -0.1113212  -0.0642713  -0.0494182), wk =   0.0082305
        k(  155) = (  -0.1113212  -0.0642713  -0.0988363), wk =   0.0082305
        k(  156) = (  -0.1113212  -0.0642713   0.1482545), wk =   0.0041152
        k(  157) = (  -0.1669817  -0.0964069   0.0000000), wk =   0.0041152
        k(  158) = (  -0.1669817  -0.0964069  -0.0494182), wk =   0.0082305
        k(  159) = (  -0.1669817  -0.0964069  -0.0988363), wk =   0.0082305
        k(  160) = (  -0.1669817  -0.0964069   0.1482545), wk =   0.0041152
        k(  161) = (  -0.2226423  -0.1285426   0.0000000), wk =   0.0041152
        k(  162) = (  -0.2226423  -0.1285426  -0.0494182), wk =   0.0082305
        k(  163) = (  -0.2226423  -0.1285426  -0.0988363), wk =   0.0082305
        k(  164) = (  -0.2226423  -0.1285426   0.1482545), wk =   0.0041152
        k(  165) = (  -0.2783029  -0.1606782   0.0000000), wk =   0.0041152
        k(  166) = (  -0.2783029  -0.1606782  -0.0494182), wk =   0.0082305
        k(  167) = (  -0.2783029  -0.1606782  -0.0988363), wk =   0.0082305
        k(  168) = (  -0.2783029  -0.1606782   0.1482545), wk =   0.0041152
        k(  169) = (  -0.3339635  -0.1928139   0.0000000), wk =   0.0041152
        k(  170) = (  -0.3339635  -0.1928139  -0.0494182), wk =   0.0082305
        k(  171) = (  -0.3339635  -0.1928139  -0.0988363), wk =   0.0082305
        k(  172) = (  -0.3339635  -0.1928139   0.1482545), wk =   0.0041152
        k(  173) = (  -0.3896240  -0.2249495   0.0000000), wk =   0.0041152
        k(  174) = (  -0.3896240  -0.2249495  -0.0494182), wk =   0.0082305
        k(  175) = (  -0.3896240  -0.2249495  -0.0988363), wk =   0.0082305
        k(  176) = (  -0.3896240  -0.2249495   0.1482545), wk =   0.0041152
        k(  177) = (  -0.4452846  -0.2570852   0.0000000), wk =   0.0041152
        k(  178) = (  -0.4452846  -0.2570852  -0.0494182), wk =   0.0082305
        k(  179) = (  -0.4452846  -0.2570852  -0.0988363), wk =   0.0082305
        k(  180) = (  -0.4452846  -0.2570852   0.1482545), wk =   0.0041152
        k(  181) = (   0.5009452   0.2892208   0.0000000), wk =   0.0020576
        k(  182) = (   0.5009452   0.2892208  -0.0494182), wk =   0.0041152
        k(  183) = (   0.5009452   0.2892208  -0.0988363), wk =   0.0041152
        k(  184) = (   0.5009452   0.2892208   0.1482545), wk =   0.0020576
        k(  185) = (   0.1113212   0.0000000   0.0000000), wk =   0.0020576
        k(  186) = (   0.1113212   0.0000000  -0.0494182), wk =   0.0041152
        k(  187) = (   0.1113212   0.0000000  -0.0988363), wk =   0.0041152
        k(  188) = (   0.1113212   0.0000000   0.1482545), wk =   0.0020576
        k(  189) = (  -0.1113212  -0.1285426   0.0000000), wk =   0.0041152
        k(  190) = (   0.1669817  -0.0321356   0.0000000), wk =   0.0041152
        k(  191) = (  -0.1113212  -0.1285426  -0.0494182), wk =   0.0082305
        k(  192) = (   0.1669817  -0.0321356  -0.0494182), wk =   0.0082305
        k(  193) = (  -0.1113212  -0.1285426  -0.0988363), wk =   0.0082305
        k(  194) = (   0.1669817  -0.0321356  -0.0988363), wk =   0.0082305
        k(  195) = (  -0.1113212  -0.1285426   0.1482545), wk =   0.0041152
        k(  196) = (   0.1669817  -0.0321356   0.1482545), wk =   0.0041152
        k(  197) = (  -0.1669817  -0.1606782   0.0000000), wk =   0.0041152
        k(  198) = (   0.2226423  -0.0642713   0.0000000), wk =   0.0041152
        k(  199) = (  -0.1669817  -0.1606782  -0.0494182), wk =   0.0082305
        k(  200) = (   0.2226423  -0.0642713  -0.0494182), wk =   0.0082305
        k(  201) = (  -0.1669817  -0.1606782  -0.0988363), wk =   0.0082305
        k(  202) = (   0.2226423  -0.0642713  -0.0988363), wk =   0.0082305
        k(  203) = (  -0.1669817  -0.1606782   0.1482545), wk =   0.0041152
        k(  204) = (   0.2226423  -0.0642713   0.1482545), wk =   0.0041152
        k(  205) = (  -0.2226423  -0.1928139   0.0000000), wk =   0.0041152
        k(  206) = (   0.2783029  -0.0964069   0.0000000), wk =   0.0041152
        k(  207) = (  -0.2226423  -0.1928139  -0.0494182), wk =   0.0082305
        k(  208) = (   0.2783029  -0.0964069  -0.0494182), wk =   0.0082305
        k(  209) = (  -0.2226423  -0.1928139  -0.0988363), wk =   0.0082305
        k(  210) = (   0.2783029  -0.0964069  -0.0988363), wk =   0.0082305
        k(  211) = (  -0.2226423  -0.1928139   0.1482545), wk =   0.0041152
        k(  212) = (   0.2783029  -0.0964069   0.1482545), wk =   0.0041152
        k(  213) = (  -0.2783029  -0.2249495   0.0000000), wk =   0.0041152
        k(  214) = (   0.3339635  -0.1285426   0.0000000), wk =   0.0041152
        k(  215) = (  -0.2783029  -0.2249495  -0.0494182), wk =   0.0082305
        k(  216) = (   0.3339635  -0.1285426  -0.0494182), wk =   0.0082305
        k(  217) = (  -0.2783029  -0.2249495  -0.0988363), wk =   0.0082305
        k(  218) = (   0.3339635  -0.1285426  -0.0988363), wk =   0.0082305
        k(  219) = (  -0.2783029  -0.2249495   0.1482545), wk =   0.0041152
        k(  220) = (   0.3339635  -0.1285426   0.1482545), wk =   0.0041152
        k(  221) = (  -0.3339635  -0.2570852   0.0000000), wk =   0.0041152
        k(  222) = (   0.3896240  -0.1606782   0.0000000), wk =   0.0041152
        k(  223) = (  -0.3339635  -0.2570852  -0.0494182), wk =   0.0082305
        k(  224) = (   0.3896240  -0.1606782  -0.0494182), wk =   0.0082305
        k(  225) = (  -0.3339635  -0.2570852  -0.0988363), wk =   0.0082305
        k(  226) = (   0.3896240  -0.1606782  -0.0988363), wk =   0.0082305
        k(  227) = (  -0.3339635  -0.2570852   0.1482545), wk =   0.0041152
        k(  228) = (   0.3896240  -0.1606782   0.1482545), wk =   0.0041152
        k(  229) = (  -0.3896240  -0.2892208   0.0000000), wk =   0.0041152
        k(  230) = (   0.4452846  -0.1928139   0.0000000), wk =   0.0041152
        k(  231) = (  -0.3896240  -0.2892208  -0.0494182), wk =   0.0082305
        k(  232) = (   0.4452846  -0.1928139  -0.0494182), wk =   0.0082305
        k(  233) = (  -0.3896240  -0.2892208  -0.0988363), wk =   0.0082305
        k(  234) = (   0.4452846  -0.1928139  -0.0988363), wk =   0.0082305
        k(  235) = (  -0.3896240  -0.2892208   0.1482545), wk =   0.0041152
        k(  236) = (   0.4452846  -0.1928139   0.1482545), wk =   0.0041152
        k(  237) = (  -0.4452846  -0.3213565   0.0000000), wk =   0.0041152
        k(  238) = (   0.5009452  -0.2249495   0.0000000), wk =   0.0041152
        k(  239) = (  -0.4452846  -0.3213565  -0.0494182), wk =   0.0082305
        k(  240) = (   0.5009452  -0.2249495  -0.0494182), wk =   0.0082305
        k(  241) = (  -0.4452846  -0.3213565  -0.0988363), wk =   0.0082305
        k(  242) = (   0.5009452  -0.2249495  -0.0988363), wk =   0.0082305
        k(  243) = (  -0.4452846  -0.3213565   0.1482545), wk =   0.0041152
        k(  244) = (   0.5009452  -0.2249495   0.1482545), wk =   0.0041152
        k(  245) = (   0.2226423   0.0000000   0.0000000), wk =   0.0020576
        k(  246) = (   0.2226423   0.0000000  -0.0494182), wk =   0.0041152
        k(  247) = (   0.2226423   0.0000000  -0.0988363), wk =   0.0041152
        k(  248) = (   0.2226423   0.0000000   0.1482545), wk =   0.0020576
        k(  249) = (  -0.1669817  -0.2249495   0.0000000), wk =   0.0041152
        k(  250) = (   0.2783029  -0.0321356   0.0000000), wk =   0.0041152
        k(  251) = (  -0.1669817  -0.2249495  -0.0494182), wk =   0.0082305
        k(  252) = (   0.2783029  -0.0321356  -0.0494182), wk =   0.0082305
        k(  253) = (  -0.1669817  -0.2249495  -0.0988363), wk =   0.0082305
        k(  254) = (   0.2783029  -0.0321356  -0.0988363), wk =   0.0082305
        k(  255) = (  -0.1669817  -0.2249495   0.1482545), wk =   0.0041152
        k(  256) = (   0.2783029  -0.0321356   0.1482545), wk =   0.0041152
        k(  257) = (  -0.2226423  -0.2570852   0.0000000), wk =   0.0041152
        k(  258) = (   0.3339635  -0.0642713   0.0000000), wk =   0.0041152
        k(  259) = (  -0.2226423  -0.2570852  -0.0494182), wk =   0.0082305
        k(  260) = (   0.3339635  -0.0642713  -0.0494182), wk =   0.0082305
        k(  261) = (  -0.2226423  -0.2570852  -0.0988363), wk =   0.0082305
        k(  262) = (   0.3339635  -0.0642713  -0.0988363), wk =   0.0082305
        k(  263) = (  -0.2226423  -0.2570852   0.1482545), wk =   0.0041152
        k(  264) = (   0.3339635  -0.0642713   0.1482545), wk =   0.0041152
        k(  265) = (  -0.2783029  -0.2892208   0.0000000), wk =   0.0041152
        k(  266) = (   0.3896240  -0.0964069   0.0000000), wk =   0.0041152
        k(  267) = (  -0.2783029  -0.2892208  -0.0494182), wk =   0.0082305
        k(  268) = (   0.3896240  -0.0964069  -0.0494182), wk =   0.0082305
        k(  269) = (  -0.2783029  -0.2892208  -0.0988363), wk =   0.0082305
        k(  270) = (   0.3896240  -0.0964069  -0.0988363), wk =   0.0082305
        k(  271) = (  -0.2783029  -0.2892208   0.1482545), wk =   0.0041152
        k(  272) = (   0.3896240  -0.0964069   0.1482545), wk =   0.0041152
        k(  273) = (  -0.3339635  -0.3213565   0.0000000), wk =   0.0041152
        k(  274) = (   0.4452846  -0.1285426   0.0000000), wk =   0.0041152
        k(  275) = (  -0.3339635  -0.3213565  -0.0494182), wk =   0.0082305
        k(  276) = (   0.4452846  -0.1285426  -0.0494182), wk =   0.0082305
        k(  277) = (  -0.3339635  -0.3213565  -0.0988363), wk =   0.0082305
        k(  278) = (   0.4452846  -0.1285426  -0.0988363), wk =   0.0082305
        k(  279) = (  -0.3339635  -0.3213565   0.1482545), wk =   0.0041152
        k(  280) = (   0.4452846  -0.1285426   0.1482545), wk =   0.0041152
        k(  281) = (  -0.3896240  -0.3534921   0.0000000), wk =   0.0041152
        k(  282) = (   0.5009452  -0.1606782   0.0000000), wk =   0.0041152
        k(  283) = (  -0.3896240  -0.3534921  -0.0494182), wk =   0.0082305
        k(  284) = (   0.5009452  -0.1606782  -0.0494182), wk =   0.0082305
        k(  285) = (  -0.3896240  -0.3534921  -0.0988363), wk =   0.0082305
        k(  286) = (   0.5009452  -0.1606782  -0.0988363), wk =   0.0082305
        k(  287) = (  -0.3896240  -0.3534921   0.1482545), wk =   0.0041152
        k(  288) = (   0.5009452  -0.1606782   0.1482545), wk =   0.0041152
        k(  289) = (  -0.4452846  -0.3856278   0.0000000), wk =   0.0041152
        k(  290) = (  -0.4452846  -0.3856278  -0.0494182), wk =   0.0082305
        k(  291) = (  -0.4452846  -0.3856278  -0.0988363), wk =   0.0082305
        k(  292) = (  -0.4452846  -0.3856278   0.1482545), wk =   0.0041152
        k(  293) = (   0.3339635   0.0000000   0.0000000), wk =   0.0020576
        k(  294) = (   0.3339635   0.0000000  -0.0494182), wk =   0.0041152
        k(  295) = (   0.3339635   0.0000000  -0.0988363), wk =   0.0041152
        k(  296) = (   0.3339635   0.0000000   0.1482545), wk =   0.0020576
        k(  297) = (  -0.2226423  -0.3213565   0.0000000), wk =   0.0041152
        k(  298) = (   0.3896240  -0.0321356   0.0000000), wk =   0.0041152
        k(  299) = (  -0.2226423  -0.3213565  -0.0494182), wk =   0.0082305
        k(  300) = (   0.3896240  -0.0321356  -0.0494182), wk =   0.0082305
        k(  301) = (  -0.2226423  -0.3213565  -0.0988363), wk =   0.0082305
        k(  302) = (   0.3896240  -0.0321356  -0.0988363), wk =   0.0082305
        k(  303) = (  -0.2226423  -0.3213565   0.1482545), wk =   0.0041152
        k(  304) = (   0.3896240  -0.0321356   0.1482545), wk =   0.0041152
        k(  305) = (  -0.2783029  -0.3534921   0.0000000), wk =   0.0041152
        k(  306) = (   0.4452846  -0.0642713   0.0000000), wk =   0.0041152
        k(  307) = (  -0.2783029  -0.3534921  -0.0494182), wk =   0.0082305
        k(  308) = (   0.4452846  -0.0642713  -0.0494182), wk =   0.0082305
        k(  309) = (  -0.2783029  -0.3534921  -0.0988363), wk =   0.0082305
        k(  310) = (   0.4452846  -0.0642713  -0.0988363), wk =   0.0082305
        k(  311) = (  -0.2783029  -0.3534921   0.1482545), wk =   0.0041152
        k(  312) = (   0.4452846  -0.0642713   0.1482545), wk =   0.0041152
        k(  313) = (  -0.3339635  -0.3856278   0.0000000), wk =   0.0041152
        k(  314) = (   0.5009452  -0.0964069   0.0000000), wk =   0.0041152
        k(  315) = (  -0.3339635  -0.3856278  -0.0494182), wk =   0.0082305
        k(  316) = (   0.5009452  -0.0964069  -0.0494182), wk =   0.0082305
        k(  317) = (  -0.3339635  -0.3856278  -0.0988363), wk =   0.0082305
        k(  318) = (   0.5009452  -0.0964069  -0.0988363), wk =   0.0082305
        k(  319) = (  -0.3339635  -0.3856278   0.1482545), wk =   0.0041152
        k(  320) = (   0.5009452  -0.0964069   0.1482545), wk =   0.0041152
        k(  321) = (  -0.3896240  -0.4177634   0.0000000), wk =   0.0041152
        k(  322) = (   0.5566058  -0.1285426   0.0000000), wk =   0.0041152
        k(  323) = (  -0.3896240  -0.4177634  -0.0494182), wk =   0.0082305
        k(  324) = (   0.5566058  -0.1285426  -0.0494182), wk =   0.0082305
        k(  325) = (  -0.3896240  -0.4177634  -0.0988363), wk =   0.0082305
        k(  326) = (   0.5566058  -0.1285426  -0.0988363), wk =   0.0082305
        k(  327) = (  -0.3896240  -0.4177634   0.1482545), wk =   0.0041152
        k(  328) = (   0.5566058  -0.1285426   0.1482545), wk =   0.0041152
        k(  329) = (   0.4452846   0.0000000   0.0000000), wk =   0.0020576
        k(  330) = (   0.4452846   0.0000000  -0.0494182), wk =   0.0041152
        k(  331) = (   0.4452846   0.0000000  -0.0988363), wk =   0.0041152
        k(  332) = (   0.4452846   0.0000000   0.1482545), wk =   0.0020576
        k(  333) = (  -0.2783029  -0.4177634   0.0000000), wk =   0.0041152
        k(  334) = (   0.5009452  -0.0321356   0.0000000), wk =   0.0041152
        k(  335) = (  -0.2783029  -0.4177634  -0.0494182), wk =   0.0082305
        k(  336) = (   0.5009452  -0.0321356  -0.0494182), wk =   0.0082305
        k(  337) = (  -0.2783029  -0.4177634  -0.0988363), wk =   0.0082305
        k(  338) = (   0.5009452  -0.0321356  -0.0988363), wk =   0.0082305
        k(  339) = (  -0.2783029  -0.4177634   0.1482545), wk =   0.0041152
        k(  340) = (   0.5009452  -0.0321356   0.1482545), wk =   0.0041152
        k(  341) = (  -0.3339635  -0.4498991   0.0000000), wk =   0.0041152
        k(  342) = (   0.5566058  -0.0642713   0.0000000), wk =   0.0041152
        k(  343) = (  -0.3339635  -0.4498991  -0.0494182), wk =   0.0082305
        k(  344) = (   0.5566058  -0.0642713  -0.0494182), wk =   0.0082305
        k(  345) = (  -0.3339635  -0.4498991  -0.0988363), wk =   0.0082305
        k(  346) = (   0.5566058  -0.0642713  -0.0988363), wk =   0.0082305
        k(  347) = (  -0.3339635  -0.4498991   0.1482545), wk =   0.0041152
        k(  348) = (   0.5566058  -0.0642713   0.1482545), wk =   0.0041152
        k(  349) = (  -0.3896240  -0.4820347   0.0000000), wk =   0.0041152
        k(  350) = (  -0.3896240  -0.4820347  -0.0494182), wk =   0.0082305
        k(  351) = (  -0.3896240  -0.4820347  -0.0988363), wk =   0.0082305
        k(  352) = (  -0.3896240  -0.4820347   0.1482545), wk =   0.0041152
        k(  353) = (   0.5566058   0.0000000   0.0000000), wk =   0.0020576
        k(  354) = (   0.5566058   0.0000000  -0.0494182), wk =   0.0041152
        k(  355) = (   0.5566058   0.0000000  -0.0988363), wk =   0.0041152
        k(  356) = (   0.5566058   0.0000000   0.1482545), wk =   0.0020576
        k(  357) = (  -0.3339635  -0.5141704   0.0000000), wk =   0.0041152
        k(  358) = (   0.6122663  -0.0321356   0.0000000), wk =   0.0041152
        k(  359) = (  -0.3339635  -0.5141704  -0.0494182), wk =   0.0082305
        k(  360) = (   0.6122663  -0.0321356  -0.0494182), wk =   0.0082305
        k(  361) = (  -0.3339635  -0.5141704  -0.0988363), wk =   0.0082305
        k(  362) = (   0.6122663  -0.0321356  -0.0988363), wk =   0.0082305
        k(  363) = (  -0.3339635  -0.5141704   0.1482545), wk =   0.0041152
        k(  364) = (   0.6122663  -0.0321356   0.1482545), wk =   0.0041152

                       cryst. coord.
        k(    1) = (   0.0000000   0.0000000   0.0000000), wk =   0.0010288
        k(    2) = (   0.0000000   0.0000000   0.1666667), wk =   0.0020576
        k(    3) = (   0.0000000   0.0000000   0.3333333), wk =   0.0020576
        k(    4) = (   0.0000000   0.0000000  -0.5000000), wk =   0.0010288
        k(    5) = (   0.0000000   0.0555556   0.0000000), wk =   0.0020576
        k(    6) = (   0.0000000   0.0555556   0.1666667), wk =   0.0041152
        k(    7) = (   0.0000000   0.0555556   0.3333333), wk =   0.0041152
        k(    8) = (   0.0000000   0.0555556  -0.5000000), wk =   0.0020576
        k(    9) = (   0.0000000   0.1111111   0.0000000), wk =   0.0020576
        k(   10) = (   0.0000000   0.1111111   0.1666667), wk =   0.0041152
        k(   11) = (   0.0000000   0.1111111   0.3333333), wk =   0.0041152
        k(   12) = (   0.0000000   0.1111111  -0.5000000), wk =   0.0020576
        k(   13) = (   0.0000000   0.1666667   0.0000000), wk =   0.0020576
        k(   14) = (   0.0000000   0.1666667   0.1666667), wk =   0.0041152
        k(   15) = (   0.0000000   0.1666667   0.3333333), wk =   0.0041152
        k(   16) = (   0.0000000   0.1666667  -0.5000000), wk =   0.0020576
        k(   17) = (   0.0000000   0.2222222   0.0000000), wk =   0.0020576
        k(   18) = (   0.0000000   0.2222222   0.1666667), wk =   0.0041152
        k(   19) = (   0.0000000   0.2222222   0.3333333), wk =   0.0041152
        k(   20) = (   0.0000000   0.2222222  -0.5000000), wk =   0.0020576
        k(   21) = (   0.0000000   0.2777778   0.0000000), wk =   0.0020576
        k(   22) = (   0.0000000   0.2777778   0.1666667), wk =   0.0041152
        k(   23) = (   0.0000000   0.2777778   0.3333333), wk =   0.0041152
        k(   24) = (   0.0000000   0.2777778  -0.5000000), wk =   0.0020576
        k(   25) = (   0.0000000   0.3333333   0.0000000), wk =   0.0020576
        k(   26) = (   0.0000000   0.3333333   0.1666667), wk =   0.0041152
        k(   27) = (   0.0000000   0.3333333   0.3333333), wk =   0.0041152
        k(   28) = (   0.0000000   0.3333333  -0.5000000), wk =   0.0020576
        k(   29) = (   0.0000000   0.3888889   0.0000000), wk =   0.0020576
        k(   30) = (   0.0000000   0.3888889   0.1666667), wk =   0.0041152
        k(   31) = (   0.0000000   0.3888889   0.3333333), wk =   0.0041152
        k(   32) = (   0.0000000   0.3888889  -0.5000000), wk =   0.0020576
        k(   33) = (   0.0000000   0.4444444   0.0000000), wk =   0.0020576
        k(   34) = (   0.0000000   0.4444444   0.1666667), wk =   0.0041152
        k(   35) = (   0.0000000   0.4444444   0.3333333), wk =   0.0041152
        k(   36) = (   0.0000000   0.4444444  -0.5000000), wk =   0.0020576
        k(   37) = (   0.0000000  -0.5000000   0.0000000), wk =   0.0010288
        k(   38) = (   0.0000000  -0.5000000   0.1666667), wk =   0.0020576
        k(   39) = (   0.0000000  -0.5000000   0.3333333), wk =   0.0020576
        k(   40) = (   0.0000000  -0.5000000  -0.5000000), wk =   0.0010288
        k(   41) = (   0.0555556   0.0555556   0.0000000), wk =   0.0041152
        k(   42) = (   0.0555556   0.0555556   0.1666667), wk =   0.0082305
        k(   43) = (   0.0555556   0.0555556   0.3333333), wk =   0.0082305
        k(   44) = (   0.0555556   0.0555556  -0.5000000), wk =   0.0041152
        k(   45) = (   0.0555556   0.1111111   0.0000000), wk =   0.0041152
        k(   46) = (   0.0555556   0.1111111   0.1666667), wk =   0.0082305
        k(   47) = (   0.0555556   0.1111111   0.3333333), wk =   0.0082305
        k(   48) = (   0.0555556   0.1111111  -0.5000000), wk =   0.0041152
        k(   49) = (   0.0555556   0.1666667   0.0000000), wk =   0.0041152
        k(   50) = (   0.0555556   0.1666667   0.1666667), wk =   0.0082305
        k(   51) = (   0.0555556   0.1666667   0.3333333), wk =   0.0082305
        k(   52) = (   0.0555556   0.1666667  -0.5000000), wk =   0.0041152
        k(   53) = (   0.0555556   0.2222222   0.0000000), wk =   0.0041152
        k(   54) = (   0.0555556   0.2222222   0.1666667), wk =   0.0082305
        k(   55) = (   0.0555556   0.2222222   0.3333333), wk =   0.0082305
        k(   56) = (   0.0555556   0.2222222  -0.5000000), wk =   0.0041152
        k(   57) = (   0.0555556   0.2777778   0.0000000), wk =   0.0041152
        k(   58) = (   0.0555556   0.2777778   0.1666667), wk =   0.0082305
        k(   59) = (   0.0555556   0.2777778   0.3333333), wk =   0.0082305
        k(   60) = (   0.0555556   0.2777778  -0.5000000), wk =   0.0041152
        k(   61) = (   0.0555556   0.3333333   0.0000000), wk =   0.0041152
        k(   62) = (   0.0555556   0.3333333   0.1666667), wk =   0.0082305
        k(   63) = (   0.0555556   0.3333333   0.3333333), wk =   0.0082305
        k(   64) = (   0.0555556   0.3333333  -0.5000000), wk =   0.0041152
        k(   65) = (   0.0555556   0.3888889   0.0000000), wk =   0.0041152
        k(   66) = (   0.0555556   0.3888889   0.1666667), wk =   0.0082305
        k(   67) = (   0.0555556   0.3888889   0.3333333), wk =   0.0082305
        k(   68) = (   0.0555556   0.3888889  -0.5000000), wk =   0.0041152
        k(   69) = (   0.0555556   0.4444444   0.0000000), wk =   0.0041152
        k(   70) = (   0.0555556   0.4444444   0.1666667), wk =   0.0082305
        k(   71) = (   0.0555556   0.4444444   0.3333333), wk =   0.0082305
        k(   72) = (   0.0555556   0.4444444  -0.5000000), wk =   0.0041152
        k(   73) = (   0.1111111   0.1111111   0.0000000), wk =   0.0041152
        k(   74) = (   0.1111111   0.1111111   0.1666667), wk =   0.0082305
        k(   75) = (   0.1111111   0.1111111   0.3333333), wk =   0.0082305
        k(   76) = (   0.1111111   0.1111111  -0.5000000), wk =   0.0041152
        k(   77) = (   0.1111111   0.1666667   0.0000000), wk =   0.0041152
        k(   78) = (   0.1111111   0.1666667   0.1666667), wk =   0.0082305
        k(   79) = (   0.1111111   0.1666667   0.3333333), wk =   0.0082305
        k(   80) = (   0.1111111   0.1666667  -0.5000000), wk =   0.0041152
        k(   81) = (   0.1111111   0.2222222   0.0000000), wk =   0.0041152
        k(   82) = (   0.1111111   0.2222222   0.1666667), wk =   0.0082305
        k(   83) = (   0.1111111   0.2222222   0.3333333), wk =   0.0082305
        k(   84) = (   0.1111111   0.2222222  -0.5000000), wk =   0.0041152
        k(   85) = (   0.1111111   0.2777778   0.0000000), wk =   0.0041152
        k(   86) = (   0.1111111   0.2777778   0.1666667), wk =   0.0082305
        k(   87) = (   0.1111111   0.2777778   0.3333333), wk =   0.0082305
        k(   88) = (   0.1111111   0.2777778  -0.5000000), wk =   0.0041152
        k(   89) = (   0.1111111   0.3333333   0.0000000), wk =   0.0041152
        k(   90) = (   0.1111111   0.3333333   0.1666667), wk =   0.0082305
        k(   91) = (   0.1111111   0.3333333   0.3333333), wk =   0.0082305
        k(   92) = (   0.1111111   0.3333333  -0.5000000), wk =   0.0041152
        k(   93) = (   0.1111111   0.3888889   0.0000000), wk =   0.0041152
        k(   94) = (   0.1111111   0.3888889   0.1666667), wk =   0.0082305
        k(   95) = (   0.1111111   0.3888889   0.3333333), wk =   0.0082305
        k(   96) = (   0.1111111   0.3888889  -0.5000000), wk =   0.0041152
        k(   97) = (   0.1111111   0.4444444   0.0000000), wk =   0.0020576
        k(   98) = (   0.1111111   0.4444444   0.1666667), wk =   0.0041152
        k(   99) = (   0.1111111   0.4444444   0.3333333), wk =   0.0041152
        k(  100) = (   0.1111111   0.4444444  -0.5000000), wk =   0.0020576
        k(  101) = (   0.1666667   0.1666667   0.0000000), wk =   0.0041152
        k(  102) = (   0.1666667   0.1666667   0.1666667), wk =   0.0082305
        k(  103) = (   0.1666667   0.1666667   0.3333333), wk =   0.0082305
        k(  104) = (   0.1666667   0.1666667  -0.5000000), wk =   0.0041152
        k(  105) = (   0.1666667   0.2222222   0.0000000), wk =   0.0041152
        k(  106) = (   0.1666667   0.2222222   0.1666667), wk =   0.0082305
        k(  107) = (   0.1666667   0.2222222   0.3333333), wk =   0.0082305
        k(  108) = (   0.1666667   0.2222222  -0.5000000), wk =   0.0041152
        k(  109) = (   0.1666667   0.2777778   0.0000000), wk =   0.0041152
        k(  110) = (   0.1666667   0.2777778   0.1666667), wk =   0.0082305
        k(  111) = (   0.1666667   0.2777778   0.3333333), wk =   0.0082305
        k(  112) = (   0.1666667   0.2777778  -0.5000000), wk =   0.0041152
        k(  113) = (   0.1666667   0.3333333   0.0000000), wk =   0.0041152
        k(  114) = (   0.1666667   0.3333333   0.1666667), wk =   0.0082305
        k(  115) = (   0.1666667   0.3333333   0.3333333), wk =   0.0082305
        k(  116) = (   0.1666667   0.3333333  -0.5000000), wk =   0.0041152
        k(  117) = (   0.1666667   0.3888889   0.0000000), wk =   0.0041152
        k(  118) = (   0.1666667   0.3888889   0.1666667), wk =   0.0082305
        k(  119) = (   0.1666667   0.3888889   0.3333333), wk =   0.0082305
        k(  120) = (   0.1666667   0.3888889  -0.5000000), wk =   0.0041152
        k(  121) = (   0.2222222   0.2222222   0.0000000), wk =   0.0041152
        k(  122) = (   0.2222222   0.2222222   0.1666667), wk =   0.0082305
        k(  123) = (   0.2222222   0.2222222   0.3333333), wk =   0.0082305
        k(  124) = (   0.2222222   0.2222222  -0.5000000), wk =   0.0041152
        k(  125) = (   0.2222222   0.2777778   0.0000000), wk =   0.0041152
        k(  126) = (   0.2222222   0.2777778   0.1666667), wk =   0.0082305
        k(  127) = (   0.2222222   0.2777778   0.3333333), wk =   0.0082305
        k(  128) = (   0.2222222   0.2777778  -0.5000000), wk =   0.0041152
        k(  129) = (   0.2222222   0.3333333   0.0000000), wk =   0.0041152
        k(  130) = (   0.2222222   0.3333333   0.1666667), wk =   0.0082305
        k(  131) = (   0.2222222   0.3333333   0.3333333), wk =   0.0082305
        k(  132) = (   0.2222222   0.3333333  -0.5000000), wk =   0.0041152
        k(  133) = (   0.2222222   0.3888889   0.0000000), wk =   0.0020576
        k(  134) = (   0.2222222   0.3888889   0.1666667), wk =   0.0041152
        k(  135) = (   0.2222222   0.3888889   0.3333333), wk =   0.0041152
        k(  136) = (   0.2222222   0.3888889  -0.5000000), wk =   0.0020576
        k(  137) = (   0.2777778   0.2777778   0.0000000), wk =   0.0041152
        k(  138) = (   0.2777778   0.2777778   0.1666667), wk =   0.0082305
        k(  139) = (   0.2777778   0.2777778   0.3333333), wk =   0.0082305
        k(  140) = (   0.2777778   0.2777778  -0.5000000), wk =   0.0041152
        k(  141) = (   0.2777778   0.3333333   0.0000000), wk =   0.0041152
        k(  142) = (   0.2777778   0.3333333   0.1666667), wk =   0.0082305
        k(  143) = (   0.2777778   0.3333333   0.3333333), wk =   0.0082305
        k(  144) = (   0.2777778   0.3333333  -0.5000000), wk =   0.0041152
        k(  145) = (   0.3333333   0.3333333   0.0000000), wk =   0.0020576
        k(  146) = (   0.3333333   0.3333333   0.1666667), wk =   0.0041152
        k(  147) = (   0.3333333   0.3333333   0.3333333), wk =   0.0041152
        k(  148) = (   0.3333333   0.3333333  -0.5000000), wk =   0.0020576
        k(  149) = (  -0.0555556  -0.0000000   0.0000000), wk =   0.0041152
        k(  150) = (  -0.0555556  -0.0000000  -0.1666667), wk =   0.0082305
        k(  151) = (  -0.0555556  -0.0000000  -0.3333333), wk =   0.0082305
        k(  152) = (  -0.0555556  -0.0000000   0.5000000), wk =   0.0041152
        k(  153) = (  -0.1111111  -0.0000000   0.0000000), wk =   0.0041152
        k(  154) = (  -0.1111111  -0.0000000  -0.1666667), wk =   0.0082305
        k(  155) = (  -0.1111111  -0.0000000  -0.3333333), wk =   0.0082305
        k(  156) = (  -0.1111111  -0.0000000   0.5000000), wk =   0.0041152
        k(  157) = (  -0.1666667   0.0000000   0.0000000), wk =   0.0041152
        k(  158) = (  -0.1666667   0.0000000  -0.1666667), wk =   0.0082305
        k(  159) = (  -0.1666667   0.0000000  -0.3333333), wk =   0.0082305
        k(  160) = (  -0.1666667   0.0000000   0.5000000), wk =   0.0041152
        k(  161) = (  -0.2222222  -0.0000000   0.0000000), wk =   0.0041152
        k(  162) = (  -0.2222222  -0.0000000  -0.1666667), wk =   0.0082305
        k(  163) = (  -0.2222222  -0.0000000  -0.3333333), wk =   0.0082305
        k(  164) = (  -0.2222222  -0.0000000   0.5000000), wk =   0.0041152
        k(  165) = (  -0.2777778   0.0000000   0.0000000), wk =   0.0041152
        k(  166) = (  -0.2777778   0.0000000  -0.1666667), wk =   0.0082305
        k(  167) = (  -0.2777778   0.0000000  -0.3333333), wk =   0.0082305
        k(  168) = (  -0.2777778   0.0000000   0.5000000), wk =   0.0041152
        k(  169) = (  -0.3333333   0.0000000   0.0000000), wk =   0.0041152
        k(  170) = (  -0.3333333   0.0000000  -0.1666667), wk =   0.0082305
        k(  171) = (  -0.3333333   0.0000000  -0.3333333), wk =   0.0082305
        k(  172) = (  -0.3333333   0.0000000   0.5000000), wk =   0.0041152
        k(  173) = (  -0.3888889   0.0000000   0.0000000), wk =   0.0041152
        k(  174) = (  -0.3888889   0.0000000  -0.1666667), wk =   0.0082305
        k(  175) = (  -0.3888889   0.0000000  -0.3333333), wk =   0.0082305
        k(  176) = (  -0.3888889   0.0000000   0.5000000), wk =   0.0041152
        k(  177) = (  -0.4444444  -0.0000000   0.0000000), wk =   0.0041152
        k(  178) = (  -0.4444444  -0.0000000  -0.1666667), wk =   0.0082305
        k(  179) = (  -0.4444444  -0.0000000  -0.3333333), wk =   0.0082305
        k(  180) = (  -0.4444444  -0.0000000   0.5000000), wk =   0.0041152
        k(  181) = (   0.5000000   0.0000000   0.0000000), wk =   0.0020576
        k(  182) = (   0.5000000   0.0000000  -0.1666667), wk =   0.0041152
        k(  183) = (   0.5000000   0.0000000  -0.3333333), wk =   0.0041152
        k(  184) = (   0.5000000   0.0000000   0.5000000), wk =   0.0020576
        k(  185) = (   0.1111111  -0.0555556   0.0000000), wk =   0.0020576
        k(  186) = (   0.1111111  -0.0555556  -0.1666667), wk =   0.0041152
        k(  187) = (   0.1111111  -0.0555556  -0.3333333), wk =   0.0041152
        k(  188) = (   0.1111111  -0.0555556   0.5000000), wk =   0.0020576
        k(  189) = (  -0.1111111  -0.0555556   0.0000000), wk =   0.0041152
        k(  190) = (   0.1666667  -0.1111111   0.0000000), wk =   0.0041152
        k(  191) = (  -0.1111111  -0.0555556  -0.1666667), wk =   0.0082305
        k(  192) = (   0.1666667  -0.1111111  -0.1666667), wk =   0.0082305
        k(  193) = (  -0.1111111  -0.0555556  -0.3333333), wk =   0.0082305
        k(  194) = (   0.1666667  -0.1111111  -0.3333333), wk =   0.0082305
        k(  195) = (  -0.1111111  -0.0555556   0.5000000), wk =   0.0041152
        k(  196) = (   0.1666667  -0.1111111   0.5000000), wk =   0.0041152
        k(  197) = (  -0.1666667  -0.0555556   0.0000000), wk =   0.0041152
        k(  198) = (   0.2222222  -0.1666667   0.0000000), wk =   0.0041152
        k(  199) = (  -0.1666667  -0.0555556  -0.1666667), wk =   0.0082305
        k(  200) = (   0.2222222  -0.1666667  -0.1666667), wk =   0.0082305
        k(  201) = (  -0.1666667  -0.0555556  -0.3333333), wk =   0.0082305
        k(  202) = (   0.2222222  -0.1666667  -0.3333333), wk =   0.0082305
        k(  203) = (  -0.1666667  -0.0555556   0.5000000), wk =   0.0041152
        k(  204) = (   0.2222222  -0.1666667   0.5000000), wk =   0.0041152
        k(  205) = (  -0.2222222  -0.0555556   0.0000000), wk =   0.0041152
        k(  206) = (   0.2777778  -0.2222222   0.0000000), wk =   0.0041152
        k(  207) = (  -0.2222222  -0.0555556  -0.1666667), wk =   0.0082305
        k(  208) = (   0.2777778  -0.2222222  -0.1666667), wk =   0.0082305
        k(  209) = (  -0.2222222  -0.0555556  -0.3333333), wk =   0.0082305
        k(  210) = (   0.2777778  -0.2222222  -0.3333333), wk =   0.0082305
        k(  211) = (  -0.2222222  -0.0555556   0.5000000), wk =   0.0041152
        k(  212) = (   0.2777778  -0.2222222   0.5000000), wk =   0.0041152
        k(  213) = (  -0.2777778  -0.0555556   0.0000000), wk =   0.0041152
        k(  214) = (   0.3333333  -0.2777778   0.0000000), wk =   0.0041152
        k(  215) = (  -0.2777778  -0.0555556  -0.1666667), wk =   0.0082305
        k(  216) = (   0.3333333  -0.2777778  -0.1666667), wk =   0.0082305
        k(  217) = (  -0.2777778  -0.0555556  -0.3333333), wk =   0.0082305
        k(  218) = (   0.3333333  -0.2777778  -0.3333333), wk =   0.0082305
        k(  219) = (  -0.2777778  -0.0555556   0.5000000), wk =   0.0041152
        k(  220) = (   0.3333333  -0.2777778   0.5000000), wk =   0.0041152
        k(  221) = (  -0.3333333  -0.0555556   0.0000000), wk =   0.0041152
        k(  222) = (   0.3888889  -0.3333333   0.0000000), wk =   0.0041152
        k(  223) = (  -0.3333333  -0.0555556  -0.1666667), wk =   0.0082305
        k(  224) = (   0.3888889  -0.3333333  -0.1666667), wk =   0.0082305
        k(  225) = (  -0.3333333  -0.0555556  -0.3333333), wk =   0.0082305
        k(  226) = (   0.3888889  -0.3333333  -0.3333333), wk =   0.0082305
        k(  227) = (  -0.3333333  -0.0555556   0.5000000), wk =   0.0041152
        k(  228) = (   0.3888889  -0.3333333   0.5000000), wk =   0.0041152
        k(  229) = (  -0.3888889  -0.0555556   0.0000000), wk =   0.0041152
        k(  230) = (   0.4444444  -0.3888889   0.0000000), wk =   0.0041152
        k(  231) = (  -0.3888889  -0.0555556  -0.1666667), wk =   0.0082305
        k(  232) = (   0.4444444  -0.3888889  -0.1666667), wk =   0.0082305
        k(  233) = (  -0.3888889  -0.0555556  -0.3333333), wk =   0.0082305
        k(  234) = (   0.4444444  -0.3888889  -0.3333333), wk =   0.0082305
        k(  235) = (  -0.3888889  -0.0555556   0.5000000), wk =   0.0041152
        k(  236) = (   0.4444444  -0.3888889   0.5000000), wk =   0.0041152
        k(  237) = (  -0.4444444  -0.0555556   0.0000000), wk =   0.0041152
        k(  238) = (   0.5000000  -0.4444444   0.0000000), wk =   0.0041152
        k(  239) = (  -0.4444444  -0.0555556  -0.1666667), wk =   0.0082305
        k(  240) = (   0.5000000  -0.4444444  -0.1666667), wk =   0.0082305
        k(  241) = (  -0.4444444  -0.0555556  -0.3333333), wk =   0.0082305
        k(  242) = (   0.5000000  -0.4444444  -0.3333333), wk =   0.0082305
        k(  243) = (  -0.4444444  -0.0555556   0.5000000), wk =   0.0041152
        k(  244) = (   0.5000000  -0.4444444   0.5000000), wk =   0.0041152
        k(  245) = (   0.2222222  -0.1111111   0.0000000), wk =   0.0020576
        k(  246) = (   0.2222222  -0.1111111  -0.1666667), wk =   0.0041152
        k(  247) = (   0.2222222  -0.1111111  -0.3333333), wk =   0.0041152
        k(  248) = (   0.2222222  -0.1111111   0.5000000), wk =   0.0020576
        k(  249) = (  -0.1666667  -0.1111111   0.0000000), wk =   0.0041152
        k(  250) = (   0.2777778  -0.1666667   0.0000000), wk =   0.0041152
        k(  251) = (  -0.1666667  -0.1111111  -0.1666667), wk =   0.0082305
        k(  252) = (   0.2777778  -0.1666667  -0.1666667), wk =   0.0082305
        k(  253) = (  -0.1666667  -0.1111111  -0.3333333), wk =   0.0082305
        k(  254) = (   0.2777778  -0.1666667  -0.3333333), wk =   0.0082305
        k(  255) = (  -0.1666667  -0.1111111   0.5000000), wk =   0.0041152
        k(  256) = (   0.2777778  -0.1666667   0.5000000), wk =   0.0041152
        k(  257) = (  -0.2222222  -0.1111111   0.0000000), wk =   0.0041152
        k(  258) = (   0.3333333  -0.2222222   0.0000000), wk =   0.0041152
        k(  259) = (  -0.2222222  -0.1111111  -0.1666667), wk =   0.0082305
        k(  260) = (   0.3333333  -0.2222222  -0.1666667), wk =   0.0082305
        k(  261) = (  -0.2222222  -0.1111111  -0.3333333), wk =   0.0082305
        k(  262) = (   0.3333333  -0.2222222  -0.3333333), wk =   0.0082305
        k(  263) = (  -0.2222222  -0.1111111   0.5000000), wk =   0.0041152
        k(  264) = (   0.3333333  -0.2222222   0.5000000), wk =   0.0041152
        k(  265) = (  -0.2777778  -0.1111111   0.0000000), wk =   0.0041152
        k(  266) = (   0.3888889  -0.2777778   0.0000000), wk =   0.0041152
        k(  267) = (  -0.2777778  -0.1111111  -0.1666667), wk =   0.0082305
        k(  268) = (   0.3888889  -0.2777778  -0.1666667), wk =   0.0082305
        k(  269) = (  -0.2777778  -0.1111111  -0.3333333), wk =   0.0082305
        k(  270) = (   0.3888889  -0.2777778  -0.3333333), wk =   0.0082305
        k(  271) = (  -0.2777778  -0.1111111   0.5000000), wk =   0.0041152
        k(  272) = (   0.3888889  -0.2777778   0.5000000), wk =   0.0041152
        k(  273) = (  -0.3333333  -0.1111111   0.0000000), wk =   0.0041152
        k(  274) = (   0.4444444  -0.3333333   0.0000000), wk =   0.0041152
        k(  275) = (  -0.3333333  -0.1111111  -0.1666667), wk =   0.0082305
        k(  276) = (   0.4444444  -0.3333333  -0.1666667), wk =   0.0082305
        k(  277) = (  -0.3333333  -0.1111111  -0.3333333), wk =   0.0082305
        k(  278) = (   0.4444444  -0.3333333  -0.3333333), wk =   0.0082305
        k(  279) = (  -0.3333333  -0.1111111   0.5000000), wk =   0.0041152
        k(  280) = (   0.4444444  -0.3333333   0.5000000), wk =   0.0041152
        k(  281) = (  -0.3888889  -0.1111111   0.0000000), wk =   0.0041152
        k(  282) = (   0.5000000  -0.3888889   0.0000000), wk =   0.0041152
        k(  283) = (  -0.3888889  -0.1111111  -0.1666667), wk =   0.0082305
        k(  284) = (   0.5000000  -0.3888889  -0.1666667), wk =   0.0082305
        k(  285) = (  -0.3888889  -0.1111111  -0.3333333), wk =   0.0082305
        k(  286) = (   0.5000000  -0.3888889  -0.3333333), wk =   0.0082305
        k(  287) = (  -0.3888889  -0.1111111   0.5000000), wk =   0.0041152
        k(  288) = (   0.5000000  -0.3888889   0.5000000), wk =   0.0041152
        k(  289) = (  -0.4444444  -0.1111111   0.0000000), wk =   0.0041152
        k(  290) = (  -0.4444444  -0.1111111  -0.1666667), wk =   0.0082305
        k(  291) = (  -0.4444444  -0.1111111  -0.3333333), wk =   0.0082305
        k(  292) = (  -0.4444444  -0.1111111   0.5000000), wk =   0.0041152
        k(  293) = (   0.3333333  -0.1666667   0.0000000), wk =   0.0020576
        k(  294) = (   0.3333333  -0.1666667  -0.1666667), wk =   0.0041152
        k(  295) = (   0.3333333  -0.1666667  -0.3333333), wk =   0.0041152
        k(  296) = (   0.3333333  -0.1666667   0.5000000), wk =   0.0020576
        k(  297) = (  -0.2222222  -0.1666667   0.0000000), wk =   0.0041152
        k(  298) = (   0.3888889  -0.2222222   0.0000000), wk =   0.0041152
        k(  299) = (  -0.2222222  -0.1666667  -0.1666667), wk =   0.0082305
        k(  300) = (   0.3888889  -0.2222222  -0.1666667), wk =   0.0082305
        k(  301) = (  -0.2222222  -0.1666667  -0.3333333), wk =   0.0082305
        k(  302) = (   0.3888889  -0.2222222  -0.3333333), wk =   0.0082305
        k(  303) = (  -0.2222222  -0.1666667   0.5000000), wk =   0.0041152
        k(  304) = (   0.3888889  -0.2222222   0.5000000), wk =   0.0041152
        k(  305) = (  -0.2777778  -0.1666667   0.0000000), wk =   0.0041152
        k(  306) = (   0.4444444  -0.2777778   0.0000000), wk =   0.0041152
        k(  307) = (  -0.2777778  -0.1666667  -0.1666667), wk =   0.0082305
        k(  308) = (   0.4444444  -0.2777778  -0.1666667), wk =   0.0082305
        k(  309) = (  -0.2777778  -0.1666667  -0.3333333), wk =   0.0082305
        k(  310) = (   0.4444444  -0.2777778  -0.3333333), wk =   0.0082305
        k(  311) = (  -0.2777778  -0.1666667   0.5000000), wk =   0.0041152
        k(  312) = (   0.4444444  -0.2777778   0.5000000), wk =   0.0041152
        k(  313) = (  -0.3333333  -0.1666667   0.0000000), wk =   0.0041152
        k(  314) = (   0.5000000  -0.3333333   0.0000000), wk =   0.0041152
        k(  315) = (  -0.3333333  -0.1666667  -0.1666667), wk =   0.0082305
        k(  316) = (   0.5000000  -0.3333333  -0.1666667), wk =   0.0082305
        k(  317) = (  -0.3333333  -0.1666667  -0.3333333), wk =   0.0082305
        k(  318) = (   0.5000000  -0.3333333  -0.3333333), wk =   0.0082305
        k(  319) = (  -0.3333333  -0.1666667   0.5000000), wk =   0.0041152
        k(  320) = (   0.5000000  -0.3333333   0.5000000), wk =   0.0041152
        k(  321) = (  -0.3888889  -0.1666667   0.0000000), wk =   0.0041152
        k(  322) = (   0.5555556  -0.3888889   0.0000000), wk =   0.0041152
        k(  323) = (  -0.3888889  -0.1666667  -0.1666667), wk =   0.0082305
        k(  324) = (   0.5555556  -0.3888889  -0.1666667), wk =   0.0082305
        k(  325) = (  -0.3888889  -0.1666667  -0.3333333), wk =   0.0082305
        k(  326) = (   0.5555556  -0.3888889  -0.3333333), wk =   0.0082305
        k(  327) = (  -0.3888889  -0.1666667   0.5000000), wk =   0.0041152
        k(  328) = (   0.5555556  -0.3888889   0.5000000), wk =   0.0041152
        k(  329) = (   0.4444444  -0.2222222   0.0000000), wk =   0.0020576
        k(  330) = (   0.4444444  -0.2222222  -0.1666667), wk =   0.0041152
        k(  331) = (   0.4444444  -0.2222222  -0.3333333), wk =   0.0041152
        k(  332) = (   0.4444444  -0.2222222   0.5000000), wk =   0.0020576
        k(  333) = (  -0.2777778  -0.2222222   0.0000000), wk =   0.0041152
        k(  334) = (   0.5000000  -0.2777778   0.0000000), wk =   0.0041152
        k(  335) = (  -0.2777778  -0.2222222  -0.1666667), wk =   0.0082305
        k(  336) = (   0.5000000  -0.2777778  -0.1666667), wk =   0.0082305
        k(  337) = (  -0.2777778  -0.2222222  -0.3333333), wk =   0.0082305
        k(  338) = (   0.5000000  -0.2777778  -0.3333333), wk =   0.0082305
        k(  339) = (  -0.2777778  -0.2222222   0.5000000), wk =   0.0041152
        k(  340) = (   0.5000000  -0.2777778   0.5000000), wk =   0.0041152
        k(  341) = (  -0.3333333  -0.2222222   0.0000000), wk =   0.0041152
        k(  342) = (   0.5555556  -0.3333333   0.0000000), wk =   0.0041152
        k(  343) = (  -0.3333333  -0.2222222  -0.1666667), wk =   0.0082305
        k(  344) = (   0.5555556  -0.3333333  -0.1666667), wk =   0.0082305
        k(  345) = (  -0.3333333  -0.2222222  -0.3333333), wk =   0.0082305
        k(  346) = (   0.5555556  -0.3333333  -0.3333333), wk =   0.0082305
        k(  347) = (  -0.3333333  -0.2222222   0.5000000), wk =   0.0041152
        k(  348) = (   0.5555556  -0.3333333   0.5000000), wk =   0.0041152
        k(  349) = (  -0.3888889  -0.2222222   0.0000000), wk =   0.0041152
        k(  350) = (  -0.3888889  -0.2222222  -0.1666667), wk =   0.0082305
        k(  351) = (  -0.3888889  -0.2222222  -0.3333333), wk =   0.0082305
        k(  352) = (  -0.3888889  -0.2222222   0.5000000), wk =   0.0041152
        k(  353) = (   0.5555556  -0.2777778   0.0000000), wk =   0.0020576
        k(  354) = (   0.5555556  -0.2777778  -0.1666667), wk =   0.0041152
        k(  355) = (   0.5555556  -0.2777778  -0.3333333), wk =   0.0041152
        k(  356) = (   0.5555556  -0.2777778   0.5000000), wk =   0.0020576
        k(  357) = (  -0.3333333  -0.2777778   0.0000000), wk =   0.0041152
        k(  358) = (   0.6111111  -0.3333333   0.0000000), wk =   0.0041152
        k(  359) = (  -0.3333333  -0.2777778  -0.1666667), wk =   0.0082305
        k(  360) = (   0.6111111  -0.3333333  -0.1666667), wk =   0.0082305
        k(  361) = (  -0.3333333  -0.2777778  -0.3333333), wk =   0.0082305
        k(  362) = (   0.6111111  -0.3333333  -0.3333333), wk =   0.0082305
        k(  363) = (  -0.3333333  -0.2777778   0.5000000), wk =   0.0041152
        k(  364) = (   0.6111111  -0.3333333   0.5000000), wk =   0.0041152

     Dense  grid:    34133 G-vectors     FFT dimensions: (  30,  30,  96)

     Smooth grid:    11995 G-vectors     FFT dimensions: (  20,  20,  72)

     Dynamical RAM for                 wfc:       0.37 MB

     Dynamical RAM for     wfc (w. buffer):       0.37 MB

     Dynamical RAM for           str. fact:       0.52 MB

     Dynamical RAM for           local pot:       0.00 MB

     Dynamical RAM for          nlocal pot:       0.74 MB

     Dynamical RAM for                qrad:       0.44 MB

     Dynamical RAM for          rho,v,vnew:       3.54 MB

     Dynamical RAM for           G-vectors:       2.04 MB

     Dynamical RAM for          h,s,v(r/c):       0.05 MB

     Dynamical RAM for          <psi|beta>:       0.01 MB

     Dynamical RAM for                 psi:       0.74 MB

     Dynamical RAM for                hpsi:       0.74 MB

     Dynamical RAM for                spsi:       0.74 MB

     Dynamical RAM for      wfcinit/wfcrot:       0.74 MB

     Dynamical RAM for           addusdens:      24.48 MB

     Estimated static dynamical RAM per process >      11.98 MB

     Estimated max dynamical RAM per process >      36.46 MB

     Check: negative core charge=   -0.000011

     The potential is recalculated from file :
     ./tmp/C_k18.save/charge-density

     Starting wfcs are   16 randomized atomic wfcs

     Band Structure Calculation
     Davidson diagonalization with overlap

     Computing kpt #:     1  of   364
     total cpu time spent up to now is        5.0 secs

     Computing kpt #:     2  of   364
     total cpu time spent up to now is        6.0 secs

     Computing kpt #:     3  of   364
     total cpu time spent up to now is        6.5 secs

     Computing kpt #:     4  of   364
     total cpu time spent up to now is        7.1 secs

     Computing kpt #:     5  of   364
     total cpu time spent up to now is        7.8 secs

     Computing kpt #:     6  of   364
     total cpu time spent up to now is        8.4 secs

     Computing kpt #:     7  of   364
     total cpu time spent up to now is        9.0 secs

     Computing kpt #:     8  of   364
     total cpu time spent up to now is        9.6 secs

     Computing kpt #:     9  of   364
     total cpu time spent up to now is       10.2 secs

     Computing kpt #:    10  of   364
     total cpu time spent up to now is       10.8 secs

     Computing kpt #:    11  of   364
     total cpu time spent up to now is       11.3 secs

     Computing kpt #:    12  of   364
     total cpu time spent up to now is       11.9 secs

     Computing kpt #:    13  of   364
     total cpu time spent up to now is       12.5 secs

     Computing kpt #:    14  of   364
     total cpu time spent up to now is       13.1 secs

     Computing kpt #:    15  of   364
     total cpu time spent up to now is       14.0 secs

     Computing kpt #:    16  of   364
     total cpu time spent up to now is       15.0 secs

     Computing kpt #:    17  of   364
     total cpu time spent up to now is       16.3 secs

     Computing kpt #:    18  of   364
     total cpu time spent up to now is       17.3 secs

     Computing kpt #:    19  of   364
     total cpu time spent up to now is       18.1 secs

     Computing kpt #:    20  of   364
     total cpu time spent up to now is       19.1 secs

     Computing kpt #:    21  of   364
     total cpu time spent up to now is       20.4 secs

     Computing kpt #:    22  of   364
     total cpu time spent up to now is       21.1 secs

     Computing kpt #:    23  of   364
     total cpu time spent up to now is       21.9 secs

     Computing kpt #:    24  of   364
     total cpu time spent up to now is       22.7 secs

     Computing kpt #:    25  of   364
     total cpu time spent up to now is       23.6 secs

     Computing kpt #:    26  of   364
     total cpu time spent up to now is       24.7 secs

     Computing kpt #:    27  of   364
     total cpu time spent up to now is       26.1 secs

     Computing kpt #:    28  of   364
     total cpu time spent up to now is       27.2 secs

     Computing kpt #:    29  of   364
     total cpu time spent up to now is       27.9 secs

     Computing kpt #:    30  of   364
     total cpu time spent up to now is       28.8 secs

     Computing kpt #:    31  of   364
     total cpu time spent up to now is       30.1 secs

     Computing kpt #:    32  of   364
     total cpu time spent up to now is       30.8 secs

     Computing kpt #:    33  of   364
     total cpu time spent up to now is       31.6 secs

     Computing kpt #:    34  of   364
     total cpu time spent up to now is       32.3 secs

     Computing kpt #:    35  of   364
     total cpu time spent up to now is       32.9 secs

     Computing kpt #:    36  of   364
     total cpu time spent up to now is       33.6 secs

     Computing kpt #:    37  of   364
     total cpu time spent up to now is       34.5 secs

     Computing kpt #:    38  of   364
     total cpu time spent up to now is       35.5 secs

     Computing kpt #:    39  of   364
     total cpu time spent up to now is       36.3 secs

     Computing kpt #:    40  of   364
     total cpu time spent up to now is       37.2 secs

     Computing kpt #:    41  of   364
     total cpu time spent up to now is       37.8 secs

     Computing kpt #:    42  of   364
     total cpu time spent up to now is       38.3 secs

     Computing kpt #:    43  of   364
     total cpu time spent up to now is       38.9 secs

     Computing kpt #:    44  of   364
     total cpu time spent up to now is       39.4 secs

     Computing kpt #:    45  of   364
     total cpu time spent up to now is       40.1 secs

     Computing kpt #:    46  of   364
     total cpu time spent up to now is       40.8 secs

     Computing kpt #:    47  of   364
     total cpu time spent up to now is       41.3 secs

     Computing kpt #:    48  of   364
     total cpu time spent up to now is       41.8 secs

     Computing kpt #:    49  of   364
     total cpu time spent up to now is       42.5 secs

     Computing kpt #:    50  of   364
     total cpu time spent up to now is       43.1 secs

     Computing kpt #:    51  of   364
     total cpu time spent up to now is       43.7 secs

     Computing kpt #:    52  of   364
     total cpu time spent up to now is       44.3 secs

     Computing kpt #:    53  of   364
     total cpu time spent up to now is       45.5 secs

     Computing kpt #:    54  of   364
     total cpu time spent up to now is       46.4 secs

     Computing kpt #:    55  of   364
     total cpu time spent up to now is       47.2 secs

     Computing kpt #:    56  of   364
     total cpu time spent up to now is       47.9 secs

     Computing kpt #:    57  of   364
     total cpu time spent up to now is       48.9 secs

     Computing kpt #:    58  of   364
     total cpu time spent up to now is       50.0 secs

     Computing kpt #:    59  of   364
     total cpu time spent up to now is       50.9 secs

     Computing kpt #:    60  of   364
     total cpu time spent up to now is       51.5 secs

     Computing kpt #:    61  of   364
     total cpu time spent up to now is       52.3 secs

     Computing kpt #:    62  of   364
     total cpu time spent up to now is       53.1 secs

     Computing kpt #:    63  of   364
     total cpu time spent up to now is       54.1 secs

     Computing kpt #:    64  of   364
     total cpu time spent up to now is       55.1 secs

     Computing kpt #:    65  of   364
     total cpu time spent up to now is       56.3 secs

     Computing kpt #:    66  of   364
     total cpu time spent up to now is       57.5 secs

     Computing kpt #:    67  of   364
     total cpu time spent up to now is       58.2 secs

     Computing kpt #:    68  of   364
     total cpu time spent up to now is       58.9 secs

     Computing kpt #:    69  of   364
     total cpu time spent up to now is       59.7 secs

     Computing kpt #:    70  of   364
     total cpu time spent up to now is       60.4 secs

     Computing kpt #:    71  of   364
     total cpu time spent up to now is       61.1 secs

     Computing kpt #:    72  of   364
     total cpu time spent up to now is       61.8 secs

     Computing kpt #:    73  of   364
     total cpu time spent up to now is       62.3 secs

     Computing kpt #:    74  of   364
     total cpu time spent up to now is       62.8 secs

     Computing kpt #:    75  of   364
     total cpu time spent up to now is       63.3 secs

     Computing kpt #:    76  of   364
     total cpu time spent up to now is       63.8 secs

     Computing kpt #:    77  of   364
     total cpu time spent up to now is       64.5 secs

     Computing kpt #:    78  of   364
     total cpu time spent up to now is       65.4 secs

     Computing kpt #:    79  of   364
     total cpu time spent up to now is       66.2 secs

     Computing kpt #:    80  of   364
     total cpu time spent up to now is       67.1 secs

     Computing kpt #:    81  of   364
     total cpu time spent up to now is       68.0 secs

     Computing kpt #:    82  of   364
     total cpu time spent up to now is       68.8 secs

     Computing kpt #:    83  of   364
     total cpu time spent up to now is       69.5 secs

     Computing kpt #:    84  of   364
     total cpu time spent up to now is       70.2 secs

     Computing kpt #:    85  of   364
     total cpu time spent up to now is       71.3 secs

     Computing kpt #:    86  of   364
     total cpu time spent up to now is       72.1 secs

     Computing kpt #:    87  of   364
     total cpu time spent up to now is       72.8 secs

     Computing kpt #:    88  of   364
     total cpu time spent up to now is       73.5 secs

     Computing kpt #:    89  of   364
     total cpu time spent up to now is       74.3 secs

     Computing kpt #:    90  of   364
     total cpu time spent up to now is       75.1 secs

     Computing kpt #:    91  of   364
     total cpu time spent up to now is       76.2 secs

     Computing kpt #:    92  of   364
     total cpu time spent up to now is       77.3 secs

     Computing kpt #:    93  of   364
     total cpu time spent up to now is       78.3 secs

     Computing kpt #:    94  of   364
     total cpu time spent up to now is       79.1 secs

     Computing kpt #:    95  of   364
     total cpu time spent up to now is       80.1 secs

     Computing kpt #:    96  of   364
     total cpu time spent up to now is       81.0 secs

     Computing kpt #:    97  of   364
     total cpu time spent up to now is       81.8 secs

     Computing kpt #:    98  of   364
     total cpu time spent up to now is       82.6 secs

     Computing kpt #:    99  of   364
     total cpu time spent up to now is       83.5 secs

     Computing kpt #:   100  of   364
     total cpu time spent up to now is       84.4 secs

     Computing kpt #:   101  of   364
     total cpu time spent up to now is       85.0 secs

     Computing kpt #:   102  of   364
     total cpu time spent up to now is       85.8 secs

     Computing kpt #:   103  of   364
     total cpu time spent up to now is       86.7 secs

     Computing kpt #:   104  of   364
     total cpu time spent up to now is       87.5 secs

     Computing kpt #:   105  of   364
     total cpu time spent up to now is       88.6 secs

     Computing kpt #:   106  of   364
     total cpu time spent up to now is       89.1 secs

     Computing kpt #:   107  of   364
     total cpu time spent up to now is       89.8 secs

     Computing kpt #:   108  of   364
     total cpu time spent up to now is       90.5 secs

     Computing kpt #:   109  of   364
     total cpu time spent up to now is       91.4 secs

     Computing kpt #:   110  of   364
     total cpu time spent up to now is       92.3 secs

     Computing kpt #:   111  of   364
     total cpu time spent up to now is       93.0 secs

     Computing kpt #:   112  of   364
     total cpu time spent up to now is       93.7 secs

     Computing kpt #:   113  of   364
     total cpu time spent up to now is       94.5 secs

     Computing kpt #:   114  of   364
     total cpu time spent up to now is       95.3 secs

     Computing kpt #:   115  of   364
     total cpu time spent up to now is       96.2 secs

     Computing kpt #:   116  of   364
     total cpu time spent up to now is       97.2 secs

     Computing kpt #:   117  of   364
     total cpu time spent up to now is       98.2 secs

     Computing kpt #:   118  of   364
     total cpu time spent up to now is       99.1 secs

     Computing kpt #:   119  of   364
     total cpu time spent up to now is       99.9 secs

     Computing kpt #:   120  of   364
     total cpu time spent up to now is      100.8 secs

     Computing kpt #:   121  of   364
     total cpu time spent up to now is      101.6 secs

     Computing kpt #:   122  of   364
     total cpu time spent up to now is      102.4 secs

     Computing kpt #:   123  of   364
     total cpu time spent up to now is      103.1 secs

     Computing kpt #:   124  of   364
     total cpu time spent up to now is      103.9 secs

     Computing kpt #:   125  of   364
     total cpu time spent up to now is      104.9 secs

     Computing kpt #:   126  of   364
     total cpu time spent up to now is      105.7 secs

     Computing kpt #:   127  of   364
     total cpu time spent up to now is      107.0 secs

     Computing kpt #:   128  of   364
     total cpu time spent up to now is      108.2 secs

     Computing kpt #:   129  of   364
     total cpu time spent up to now is      109.2 secs

     Computing kpt #:   130  of   364
     total cpu time spent up to now is      110.1 secs

     Computing kpt #:   131  of   364
     total cpu time spent up to now is      111.1 secs

     Computing kpt #:   132  of   364
     total cpu time spent up to now is      111.9 secs

     Computing kpt #:   133  of   364
     total cpu time spent up to now is      112.7 secs

     Computing kpt #:   134  of   364
     total cpu time spent up to now is      113.5 secs

     Computing kpt #:   135  of   364
     total cpu time spent up to now is      114.3 secs

     Computing kpt #:   136  of   364
     total cpu time spent up to now is      115.2 secs

     Computing kpt #:   137  of   364
     total cpu time spent up to now is      116.2 secs

     Computing kpt #:   138  of   364
     total cpu time spent up to now is      117.7 secs

     Computing kpt #:   139  of   364
     total cpu time spent up to now is      119.2 secs

     Computing kpt #:   140  of   364
     total cpu time spent up to now is      120.6 secs

     Computing kpt #:   141  of   364
     total cpu time spent up to now is      121.6 secs

     Computing kpt #:   142  of   364
     total cpu time spent up to now is      122.6 secs

     Computing kpt #:   143  of   364
     total cpu time spent up to now is      123.7 secs

     Computing kpt #:   144  of   364
     total cpu time spent up to now is      124.8 secs

     Computing kpt #:   145  of   364
     total cpu time spent up to now is      125.8 secs

     Computing kpt #:   146  of   364
     total cpu time spent up to now is      126.8 secs

     Computing kpt #:   147  of   364
     total cpu time spent up to now is      128.0 secs

     Computing kpt #:   148  of   364
     total cpu time spent up to now is      129.7 secs

     Computing kpt #:   149  of   364
     total cpu time spent up to now is      130.6 secs

     Computing kpt #:   150  of   364
     total cpu time spent up to now is      131.3 secs

     Computing kpt #:   151  of   364
     total cpu time spent up to now is      131.8 secs

     Computing kpt #:   152  of   364
     total cpu time spent up to now is      132.3 secs

     Computing kpt #:   153  of   364
     total cpu time spent up to now is      132.9 secs

     Computing kpt #:   154  of   364
     total cpu time spent up to now is      133.4 secs

     Computing kpt #:   155  of   364
     total cpu time spent up to now is      134.0 secs

     Computing kpt #:   156  of   364
     total cpu time spent up to now is      134.5 secs

     Computing kpt #:   157  of   364
     total cpu time spent up to now is      135.1 secs

     Computing kpt #:   158  of   364
     total cpu time spent up to now is      135.7 secs

     Computing kpt #:   159  of   364
     total cpu time spent up to now is      136.3 secs

     Computing kpt #:   160  of   364
     total cpu time spent up to now is      136.8 secs

     Computing kpt #:   161  of   364
     total cpu time spent up to now is      137.5 secs

     Computing kpt #:   162  of   364
     total cpu time spent up to now is      138.4 secs

[...]
     1.0000   1.0000   1.0000   1.0000   1.0000   1.0000   1.0000   1.0000
     0.0000   0.0000   0.0000   0.0000   0.0000   0.0000   0.0000   0.0000

          k =-0.3896-0.4178 0.0000 (  1514 PWs)   bands (ev):

    -9.3012  -9.2779  -7.7431  -7.7245  -3.4078  -3.3970   2.8302   3.0531
     6.3695   6.5281  14.7235  14.8567  15.3377  16.4138  16.7988  17.2383

     occupation numbers 
     1.0000   1.0000   1.0000   1.0000   1.0000   1.0000   1.0000   1.0000
     0.0000   0.0000   0.0000   0.0000   0.0000   0.0000   0.0000   0.0000

          k = 0.5566-0.1285 0.0000 (  1514 PWs)   bands (ev):

    -9.3012  -9.2779  -7.7431  -7.7245  -3.4078  -3.3970   2.8302   3.0532
     6.3694   6.5280  14.7236  14.8568  15.3375  16.4139  16.7989  17.2383

     occupation numbers 
     1.0000   1.0000   1.0000   1.0000   1.0000   1.0000   1.0000   1.0000
     0.0000   0.0000   0.0000   0.0000   0.0000   0.0000   0.0000   0.0000

          k =-0.3896-0.4178-0.0494 (  1520 PWs)   bands (ev):

    -9.2997  -9.2795  -7.7419  -7.7258  -3.4071  -3.3977   2.8454   3.0386
     6.3772   6.5148  14.7323  14.8468  15.4090  16.2748  16.8872  17.4121

     occupation numbers 
     1.0000   1.0000   1.0000   1.0000   1.0000   1.0000   1.0000   1.0000
     0.0000   0.0000   0.0000   0.0000   0.0000   0.0000   0.0000   0.0000

          k = 0.5566-0.1285-0.0494 (  1520 PWs)   bands (ev):

    -9.2997  -9.2795  -7.7419  -7.7258  -3.4071  -3.3977   2.8455   3.0387
     6.3771   6.5146  14.7324  14.8469  15.4089  16.2749  16.8873  17.4121

     occupation numbers 
     1.0000   1.0000   1.0000   1.0000   1.0000   1.0000   1.0000   1.0000
     0.0000   0.0000   0.0000   0.0000   0.0000   0.0000   0.0000   0.0000

          k =-0.3896-0.4178-0.0988 (  1517 PWs)   bands (ev):

    -9.2954  -9.2838  -7.7385  -7.7292  -3.4051  -3.3997   2.8869   2.9985
     6.4005   6.4802  14.7554  14.8206  15.5922  16.0483  17.1025  17.6424

     occupation numbers 
     1.0000   1.0000   1.0000   1.0000   1.0000   1.0000   1.0000   1.0000
     0.0000   0.0000   0.0000   0.0000   0.0000   0.0000   0.0000   0.0000

          k = 0.5566-0.1285-0.0988 (  1517 PWs)   bands (ev):

    -9.2954  -9.2838  -7.7385  -7.7292  -3.4051  -3.3997   2.8869   2.9986
     6.4004   6.4801  14.7554  14.8207  15.5921  16.0484  17.1025  17.6424

     occupation numbers 
     1.0000   1.0000   1.0000   1.0000   1.0000   1.0000   1.0000   1.0000
     0.0000   0.0000   0.0000   0.0000   0.0000   0.0000   0.0000   0.0000

          k =-0.3896-0.4178 0.1483 (  1520 PWs)   bands (ev):

    -9.2896  -9.2896  -7.7339  -7.7339  -3.4024  -3.4024   2.9431   2.9431
     6.4375   6.4375  14.7870  14.7870  15.8191  15.8191  17.4457  17.4457

     occupation numbers 
     1.0000   1.0000   1.0000   1.0000   1.0000   1.0000   1.0000   1.0000
     0.0000   0.0000   0.0000   0.0000   0.0000   0.0000   0.0000   0.0000

          k = 0.5566-0.1285 0.1483 (  1520 PWs)   bands (ev):

    -9.2896  -9.2896  -7.7339  -7.7339  -3.4024  -3.4024   2.9431   2.9431
     6.4374   6.4374  14.7870  14.7870  15.8191  15.8191  17.4457  17.4457

     occupation numbers 
     1.0000   1.0000   1.0000   1.0000   1.0000   1.0000   1.0000   1.0000
     0.0000   0.0000   0.0000   0.0000   0.0000   0.0000   0.0000   0.0000

          k = 0.4453 0.0000 0.0000 (  1507 PWs)   bands (ev):

   -11.2896 -11.2561  -4.8612  -4.8532  -3.3393  -3.3330   0.9499   1.3827
     8.7235   8.8490  12.5154  15.0032  16.1872  16.3575  17.0855  17.2020

     occupation numbers 
     1.0000   1.0000   1.0000   1.0000   1.0000   1.0000   1.0000   1.0000
     0.0000   0.0000   0.0000   0.0000   0.0000   0.0000   0.0000   0.0000

          k = 0.4453 0.0000-0.0494 (  1512 PWs)   bands (ev):

   -11.2874 -11.2584  -4.8607  -4.8537  -3.3389  -3.3334   0.9770   1.3517
     8.7319   8.8405  12.6452  14.7637  16.2208  16.3548  17.0824  17.1890

     occupation numbers 
     1.0000   1.0000   1.0000   1.0000   1.0000   1.0000   1.0000   1.0000
     0.0000   0.0000   0.0000   0.0000   0.0000   0.0000   0.0000   0.0000

          k = 0.4453 0.0000-0.0988 (  1514 PWs)   bands (ev):

   -11.2813 -11.2645  -4.8592  -4.8552  -3.3377  -3.3346   1.0525   1.2685
     8.7548   8.8175  13.0154  14.2056  16.2749  16.3431  17.0858  17.1536

     occupation numbers 
     1.0000   1.0000   1.0000   1.0000   1.0000   1.0000   1.0000   1.0000
     0.0000   0.0000   0.0000   0.0000   0.0000   0.0000   0.0000   0.0000

          k = 0.4453 0.0000 0.1483 (  1516 PWs)   bands (ev):

   -11.2730 -11.2730  -4.8572  -4.8572  -3.3362  -3.3362   1.1586   1.1586
     8.7861   8.7861  13.5687  13.5687  16.3169  16.3169  17.1118  17.1118

     occupation numbers 
     1.0000   1.0000   1.0000   1.0000   1.0000   1.0000   1.0000   1.0000
     0.0000   0.0000   0.0000   0.0000   0.0000   0.0000   0.0000   0.0000

          k =-0.2783-0.4178 0.0000 (  1517 PWs)   bands (ev):

   -10.4071 -10.3766  -5.8616  -5.8487  -3.9990  -3.9897   1.9184   2.3014
     7.5478   7.6931  13.7046  15.4819  16.3105  16.5841  17.3527  17.6758

     occupation numbers 
     1.0000   1.0000   1.0000   1.0000   1.0000   1.0000   1.0000   1.0000
     0.0000   0.0000   0.0000   0.0000   0.0000   0.0000   0.0000   0.0000

          k = 0.5009-0.0321 0.0000 (  1517 PWs)   bands (ev):

   -10.4071 -10.3766  -5.8619  -5.8491  -3.9986  -3.9893   1.9186   2.3016
     7.5475   7.6926  13.7046  15.4822  16.3110  16.5846  17.3531  17.6757

     occupation numbers 
     1.0000   1.0000   1.0000   1.0000   1.0000   1.0000   1.0000   1.0000
     0.0000   0.0000   0.0000   0.0000   0.0000   0.0000   0.0000   0.0000

          k =-0.2783-0.4178-0.0494 (  1522 PWs)   bands (ev):

   -10.4051 -10.3787  -5.8607  -5.8496  -3.9984  -3.9903   1.9427   2.2743
     7.5573   7.6831  13.8104  15.3337  16.3415  16.5679  17.3747  17.7788

     occupation numbers 
     1.0000   1.0000   1.0000   1.0000   1.0000   1.0000   1.0000   1.0000
     0.0000   0.0000   0.0000   0.0000   0.0000   0.0000   0.0000   0.0000

          k = 0.5009-0.0321-0.0494 (  1522 PWs)   bands (ev):

   -10.4051 -10.3787  -5.8611  -5.8500  -3.9980  -3.9899   1.9429   2.2745
     7.5569   7.6827  13.8105  15.3340  16.3419  16.5683  17.3751  17.7787

     occupation numbers 
     1.0000   1.0000   1.0000   1.0000   1.0000   1.0000   1.0000   1.0000
     0.0000   0.0000   0.0000   0.0000   0.0000   0.0000   0.0000   0.0000

          k =-0.2783-0.4178-0.0988 (  1524 PWs)   bands (ev):

   -10.3996 -10.3843  -5.8584  -5.8519  -3.9967  -3.9921   2.0100   2.2013
     7.5834   7.6561  14.1053  14.9715  16.4014  16.5243  17.4999  17.9281

     occupation numbers 
     1.0000   1.0000   1.0000   1.0000   1.0000   1.0000   1.0000   1.0000
     0.0000   0.0000   0.0000   0.0000   0.0000   0.0000   0.0000   0.0000

          k = 0.5009-0.0321-0.0988 (  1524 PWs)   bands (ev):

   -10.3996 -10.3843  -5.8587  -5.8523  -3.9963  -3.9917   2.0101   2.2015
     7.5831   7.6556  14.1054  14.9717  16.4017  16.5246  17.5002  17.9281

     occupation numbers 
     1.0000   1.0000   1.0000   1.0000   1.0000   1.0000   1.0000   1.0000
     0.0000   0.0000   0.0000   0.0000   0.0000   0.0000   0.0000   0.0000

          k =-0.2783-0.4178 0.1483 (  1528 PWs)   bands (ev):

   -10.3920 -10.3920  -5.8552  -5.8552  -3.9944  -3.9944   2.1042   2.1042
     7.6195   7.6195  14.5244  14.5244  16.4651  16.4651  17.7469  17.7469

     occupation numbers 
     1.0000   1.0000   1.0000   1.0000   1.0000   1.0000   1.0000   1.0000
     0.0000   0.0000   0.0000   0.0000   0.0000   0.0000   0.0000   0.0000

          k = 0.5009-0.0321 0.1483 (  1528 PWs)   bands (ev):

   -10.3920 -10.3920  -5.8555  -5.8555  -3.9940  -3.9940   2.1044   2.1044
     7.6191   7.6191  14.5245  14.5245  16.4654  16.4654  17.7471  17.7471

     occupation numbers 
     1.0000   1.0000   1.0000   1.0000   1.0000   1.0000   1.0000   1.0000
     0.0000   0.0000   0.0000   0.0000   0.0000   0.0000   0.0000   0.0000

          k =-0.3340-0.4499 0.0000 (  1521 PWs)   bands (ev):

    -9.4400  -9.4135  -6.9753  -6.9578  -4.3405  -4.3285   2.8872   3.1849
     6.4787   6.6275  15.0269  15.7989  16.1894  16.4870  16.6696  17.5732

     occupation numbers 
     1.0000   1.0000   1.0000   1.0000   1.0000   1.0000   1.0000   1.0000
     0.0000   0.0000   0.0000   0.0000   0.0000   0.0000   0.0000   0.0000

          k = 0.5566-0.0643 0.0000 (  1521 PWs)   bands (ev):

    -9.4400  -9.4134  -6.9754  -6.9580  -4.3403  -4.3284   2.8874   3.1851
     6.4785   6.6272  15.0269  15.7991  16.1895  16.4870  16.6698  17.5734

     occupation numbers 
     1.0000   1.0000   1.0000   1.0000   1.0000   1.0000   1.0000   1.0000
     0.0000   0.0000   0.0000   0.0000   0.0000   0.0000   0.0000   0.0000

          k =-0.3340-0.4499-0.0494 (  1524 PWs)   bands (ev):

    -9.4382  -9.4152  -6.9741  -6.9590  -4.3397  -4.3293   2.9066   3.1644
     6.4876   6.6166  15.0691  15.7022  16.2193  16.4679  16.7672  17.7522

     occupation numbers 
     1.0000   1.0000   1.0000   1.0000   1.0000   1.0000   1.0000   1.0000
     0.0000   0.0000   0.0000   0.0000   0.0000   0.0000   0.0000   0.0000

          k = 0.5566-0.0643-0.0494 (  1524 PWs)   bands (ev):

    -9.4382  -9.4152  -6.9743  -6.9591  -4.3395  -4.3292   2.9068   3.1646
     6.4874   6.6163  15.0691  15.7024  16.2194  16.4679  16.7674  17.7524

     occupation numbers 
     1.0000   1.0000   1.0000   1.0000   1.0000   1.0000   1.0000   1.0000
     0.0000   0.0000   0.0000   0.0000   0.0000   0.0000   0.0000   0.0000

          k =-0.3340-0.4499-0.0988 (  1529 PWs)   bands (ev):

    -9.4334  -9.4201  -6.9709  -6.9622  -4.3375  -4.3315   2.9600   3.1089
     6.5128   6.5874  15.1771  15.5120  16.2787  16.4247  17.0805  18.0357

     occupation numbers 
     1.0000   1.0000   1.0000   1.0000   1.0000   1.0000   1.0000   1.0000
     0.0000   0.0000   0.0000   0.0000   0.0000   0.0000   0.0000   0.0000

          k = 0.5566-0.0643-0.0988 (  1529 PWs)   bands (ev):

    -9.4334  -9.4201  -6.9711  -6.9624  -4.3374  -4.3314   2.9602   3.1091
     6.5126   6.5871  15.1772  15.5122  16.2787  16.4247  17.0806  18.0358

     occupation numbers 
     1.0000   1.0000   1.0000   1.0000   1.0000   1.0000   1.0000   1.0000
     0.0000   0.0000   0.0000   0.0000   0.0000   0.0000   0.0000   0.0000

          k =-0.3340-0.4499 0.1483 (  1530 PWs)   bands (ev):

    -9.4268  -9.4268  -6.9666  -6.9666  -4.3345  -4.3345   3.0339   3.0339
     6.5491   6.5491  15.3272  15.3272  16.3565  16.3565  17.6050  17.6050

     occupation numbers 
     1.0000   1.0000   1.0000   1.0000   1.0000   1.0000   1.0000   1.0000
     0.0000   0.0000   0.0000   0.0000   0.0000   0.0000   0.0000   0.0000

          k = 0.5566-0.0643 0.1483 (  1530 PWs)   bands (ev):

    -9.4268  -9.4268  -6.9667  -6.9667  -4.3344  -4.3344   3.0341   3.0341
     6.5488   6.5488  15.3274  15.3274  16.3564  16.3564  17.6050  17.6050

     occupation numbers 
     1.0000   1.0000   1.0000   1.0000   1.0000   1.0000   1.0000   1.0000
     0.0000   0.0000   0.0000   0.0000   0.0000   0.0000   0.0000   0.0000

          k =-0.3896-0.4820 0.0000 (  1519 PWs)   bands (ev):

    -8.7067  -8.6931  -7.7586  -7.7501  -4.4452  -4.4326   3.4473   3.6129
     5.9872   6.0335  15.9628  16.1116  16.3526  16.3633  16.3635  16.6001

     occupation numbers 
     1.0000   1.0000   1.0000   1.0000   1.0000   1.0000   1.0000   1.0000
     0.0000   0.0000   0.0000   0.0000   0.0000   0.0000   0.0000   0.0000

          k =-0.3896-0.4820-0.0494 (  1522 PWs)   bands (ev):

    -8.7057  -8.6940  -7.7581  -7.7507  -4.4444  -4.4334   3.4593   3.6029
     5.9876   6.0281  15.8256  15.9765  16.1481  16.4478  16.6052  17.0311

     occupation numbers 
     1.0000   1.0000   1.0000   1.0000   1.0000   1.0000   1.0000   1.0000
     0.0000   0.0000   0.0000   0.0000   0.0000   0.0000   0.0000   0.0000

          k =-0.3896-0.4820-0.0988 (  1529 PWs)   bands (ev):

    -8.7032  -8.6965  -7.7566  -7.7524  -4.4421  -4.4357   3.4915   3.5746
     5.9911   6.0148  15.6743  15.7224  16.2340  16.4043  17.0845  17.6572

     occupation numbers 
     1.0000   1.0000   1.0000   1.0000   1.0000   1.0000   1.0000   1.0000
     0.0000   0.0000   0.0000   0.0000   0.0000   0.0000   0.0000   0.0000

          k =-0.3896-0.4820 0.1483 (  1542 PWs)   bands (ev):

    -8.6999  -8.6999  -7.7545  -7.7545  -4.4389  -4.4389   3.5341   3.5341
     6.0004   6.0004  15.6280  15.6280  16.3286  16.3286  17.6457  17.6457

     occupation numbers 
     1.0000   1.0000   1.0000   1.0000   1.0000   1.0000   1.0000   1.0000
     0.0000   0.0000   0.0000   0.0000   0.0000   0.0000   0.0000   0.0000

          k = 0.5566 0.0000 0.0000 (  1525 PWs)   bands (ev):

    -9.4949  -9.4677  -6.4876  -6.4775  -4.8759  -4.8686   2.8973   3.2234
     6.5406   6.6851  14.9371  15.5625  16.4348  17.3798  17.3903  18.1259

     occupation numbers 
     1.0000   1.0000   1.0000   1.0000   1.0000   1.0000   1.0000   1.0000
     0.0000   0.0000   0.0000   0.0000   0.0000   0.0000   0.0000   0.0000

          k = 0.5566 0.0000-0.0494 (  1529 PWs)   bands (ev):

    -9.4931  -9.4696  -6.4869  -6.4782  -4.8754  -4.8691   2.9182   3.2006
     6.5501   6.6752  14.9638  15.4873  16.5409  17.4690  17.4809  18.0602

     occupation numbers 
     1.0000   1.0000   1.0000   1.0000   1.0000   1.0000   1.0000   1.0000
     0.0000   0.0000   0.0000   0.0000   0.0000   0.0000   0.0000   0.0000

          k = 0.5566 0.0000-0.0988 (  1527 PWs)   bands (ev):

    -9.4881  -9.4746  -6.4851  -6.4800  -4.8742  -4.8705   2.9761   3.1391
     6.5763   6.6484  15.0384  15.3227  16.8681  17.6558  17.7121  17.8443

     occupation numbers 
     1.0000   1.0000   1.0000   1.0000   1.0000   1.0000   1.0000   1.0000
     0.0000   0.0000   0.0000   0.0000   0.0000   0.0000   0.0000   0.0000

          k = 0.5566 0.0000 0.1483 (  1536 PWs)   bands (ev):

    -9.4814  -9.4814  -6.4826  -6.4826  -4.8723  -4.8723   3.0567   3.0567
     6.6121   6.6121  15.1594  15.1594  17.3674  17.3674  17.8591  17.8591

     occupation numbers 
     1.0000   1.0000   1.0000   1.0000   1.0000   1.0000   1.0000   1.0000
     0.0000   0.0000   0.0000   0.0000   0.0000   0.0000   0.0000   0.0000

          k =-0.3340-0.5142 0.0000 (  1527 PWs)   bands (ev):

    -8.5587  -8.5376  -7.3011  -7.2883  -5.3079  -5.2980   3.8189   4.0458
     5.6561   5.7789  15.5767  15.8945  16.2186  17.2147  17.3407  18.0824

     occupation numbers 
     1.0000   1.0000   1.0000   1.0000   1.0000   1.0000   1.0000   1.0000
    -0.0000   0.0000   0.0000   0.0000   0.0000   0.0000   0.0000   0.0000

          k = 0.6123-0.0321 0.0000 (  1527 PWs)   bands (ev):

    -8.5587  -8.5375  -7.3014  -7.2886  -5.3077  -5.2978   3.8191   4.0460
     5.6558   5.7785  15.5768  15.8946  16.2187  17.2144  17.3410  18.0825

     occupation numbers 
     1.0000   1.0000   1.0000   1.0000   1.0000   1.0000   1.0000   1.0000
    -0.0000   0.0000   0.0000   0.0000   0.0000   0.0000   0.0000   0.0000

          k =-0.3340-0.5142-0.0494 (  1525 PWs)   bands (ev):

    -8.5573  -8.5390  -7.3003  -7.2892  -5.3072  -5.2986   3.8344   4.0310
     5.6632   5.7695  15.5064  15.6526  16.5623  17.3285  17.5218  18.0350

     occupation numbers 
     1.0000   1.0000   1.0000   1.0000   1.0000   1.0000   1.0000   1.0000
    -0.0000   0.0000   0.0000   0.0000   0.0000   0.0000   0.0000   0.0000

          k = 0.6123-0.0321-0.0494 (  1525 PWs)   bands (ev):

    -8.5572  -8.5389  -7.3005  -7.2894  -5.3071  -5.2985   3.8346   4.0312
     5.6629   5.7692  15.5065  15.6527  16.5623  17.3283  17.5219  18.0353

     occupation numbers 
     1.0000   1.0000   1.0000   1.0000   1.0000   1.0000   1.0000   1.0000
    -0.0000   0.0000   0.0000   0.0000   0.0000   0.0000   0.0000   0.0000

          k =-0.3340-0.5142-0.0988 (  1532 PWs)   bands (ev):

    -8.5534  -8.5429  -7.2980  -7.2916  -5.3054  -5.3005   3.8765   3.9902
     5.6834   5.7447  15.3872  15.4282  17.0771  17.6178  17.8166  18.0548

     occupation numbers 
     1.0000   1.0000   1.0000   1.0000   1.0000   1.0000   1.0000   1.0000
    -0.0000   0.0000   0.0000   0.0000   0.0000   0.0000   0.0000   0.0000

          k = 0.6123-0.0321-0.0988 (  1532 PWs)   bands (ev):

    -8.5534  -8.5428  -7.2982  -7.2918  -5.3053  -5.3003   3.8767   3.9904
     5.6831   5.7444  15.3873  15.4283  17.0770  17.6177  17.8162  18.0555

     occupation numbers 
     1.0000   1.0000   1.0000   1.0000   1.0000   1.0000   1.0000   1.0000
    -0.0000   0.0000   0.0000   0.0000   0.0000   0.0000   0.0000   0.0000

          k =-0.3340-0.5142 0.1483 (  1536 PWs)   bands (ev):

    -8.5482  -8.5482  -7.2948  -7.2948  -5.3030  -5.3030   3.9336   3.9336
     5.7129   5.7129  15.3423  15.3423  17.5444  17.5444  18.0674  18.0674

     occupation numbers 
     1.0000   1.0000   1.0000   1.0000   1.0000   1.0000   1.0000   1.0000
     0.0000   0.0000   0.0000   0.0000   0.0000   0.0000   0.0000   0.0000

          k = 0.6123-0.0321 0.1483 (  1536 PWs)   bands (ev):

    -8.5481  -8.5481  -7.2950  -7.2950  -5.3028  -5.3028   3.9339   3.9339
     5.7126   5.7126  15.3424  15.3424  17.5442  17.5442  18.0676  18.0676

     occupation numbers 
     1.0000   1.0000   1.0000   1.0000   1.0000   1.0000   1.0000   1.0000
     0.0000   0.0000   0.0000   0.0000   0.0000   0.0000   0.0000   0.0000

     the Fermi energy is     4.8372 ev
     (compare with:     4.8763 eV, computed in scf)

     Writing output data file ./tmp/C_k18.save/

     init_run     :      1.83s CPU      1.93s WALL (       1 calls)
     electrons    :    308.76s CPU    321.90s WALL (       1 calls)

     Called by init_run:
     wfcinit      :      0.00s CPU      0.00s WALL (       1 calls)
     wfcinit:atom :      0.43s CPU      0.51s WALL (     364 calls)
     wfcinit:wfcr :     13.20s CPU     13.80s WALL (     364 calls)
     potinit      :      0.31s CPU      0.34s WALL (       1 calls)
     hinit0       :      1.15s CPU      1.17s WALL (       1 calls)

     Called by electrons:
     c_bands      :    308.41s CPU    321.54s WALL (       1 calls)
     v_of_rho     :      0.26s CPU      0.28s WALL (       1 calls)
     v_h          :      0.01s CPU      0.01s WALL (       1 calls)
     v_xc         :      0.25s CPU      0.27s WALL (       1 calls)
     newd         :      0.11s CPU      0.14s WALL (       1 calls)

     Called by c_bands:
     init_us_2    :      0.57s CPU      0.74s WALL (     364 calls)
     cegterg      :    290.15s CPU    301.56s WALL (     698 calls)

     Called by sum_band:

     Called by *egterg:
     cdiaghg      :     15.11s CPU     15.73s WALL (   11261 calls)
     cegterg:over :     20.49s CPU     21.32s WALL (   10897 calls)
     cegterg:upda :     13.36s CPU     13.86s WALL (   10897 calls)
     cegterg:last :     27.26s CPU     28.20s WALL (    6263 calls)
     h_psi        :    205.31s CPU    213.90s WALL (   11959 calls)
     s_psi        :     11.72s CPU     12.24s WALL (   11959 calls)
     g_psi        :      3.51s CPU      3.65s WALL (   10897 calls)

     Called by h_psi:
     h_psi:calbec :     13.65s CPU     14.19s WALL (   11959 calls)
     vloc_psi     :    176.92s CPU    184.41s WALL (   11959 calls)
     add_vuspsi   :     12.33s CPU     12.89s WALL (   11959 calls)

     General routines
     calbec       :     13.45s CPU     14.02s WALL (   11959 calls)
     fft          :      0.21s CPU      0.21s WALL (      13 calls)
     ffts         :      0.01s CPU      0.01s WALL (       1 calls)
     fftw         :    141.81s CPU    148.24s WALL (  214214 calls)
     interpolate  :      0.03s CPU      0.03s WALL (       1 calls)
     davcio       :      0.29s CPU      1.01s WALL (     728 calls)

     Parallel routines

     PWSCF        :   5m13.33s CPU   5m29.34s WALL


   This run was terminated on:  22:45:49  26May2022            

=------------------------------------------------------------------------------=
   JOB DONE.
=------------------------------------------------------------------------------=
