
     Program PWSCF v.6.7MaX starts on 27May2022 at  5:20:33 

     This program is part of the open-source Quantum ESPRESSO suite
     for quantum simulation of materials; please cite
         "P. Giannozzi et al., J. Phys.:Condens. Matter 21 395502 (2009);
         "P. Giannozzi et al., J. Phys.:Condens. Matter 29 465901 (2017);
          URL http://www.quantum-espresso.org", 
     in publications or presentations arising from this work. More details at
     http://www.quantum-espresso.org/quote

     Parallel version (MPI), running on     1 processors

     MPI processes distributed on     1 nodes
     Waiting for input...
     Reading input from standard input

     Current dimensions of program PWSCF are:
     Max number of different atomic species (ntypx) = 10
     Max number of k-points (npk) =  40000
     Max angular momentum in pseudopotentials (lmaxx) =  3

     Subspace diagonalization in iterative solution of the eigenvalue problem:
     a serial algorithm will be used

     Message from routine setup:
     using ibrav=0 with symmetry is DISCOURAGED, use correct ibrav instead

     G-vector sticks info
     --------------------
     sticks:   dense  smooth     PW     G-vecs:    dense   smooth      PW
     Sum         547     265     85                34133    11995    2223



     bravais-lattice index     =            0
     lattice parameter (alat)  =       4.6676  a.u.
     unit-cell volume          =     295.8966 (a.u.)^3
     number of atoms/cell      =            4
     number of atomic types    =            1
     number of electrons       =        16.00
     number of Kohn-Sham states=           12
     kinetic-energy cutoff     =      45.0000  Ry
     charge density cutoff     =     360.0000  Ry
     scf convergence threshold =      1.0E-09
     mixing beta               =       0.7000
     number of iterations used =            8  plain     mixing
     Exchange-correlation= PBE
                           (   1   4   3   4   0   0   0)

     celldm(1)=   4.667624  celldm(2)=   0.000000  celldm(3)=   0.000000
     celldm(4)=   0.000000  celldm(5)=   0.000000  celldm(6)=   0.000000

     crystal axes: (cart. coord. in units of alat)
               a(1) = (   0.998113   0.000000   0.000000 )  
               a(2) = (  -0.499057   0.864391   0.000000 )  
               a(3) = (   0.000000   0.000000   3.372580 )  

     reciprocal axes: (cart. coord. in units 2 pi/alat)
               b(1) = (  1.001890  0.578442 -0.000000 )  
               b(2) = (  0.000000  1.156883  0.000000 )  
               b(3) = (  0.000000 -0.000000  0.296509 )  


     PseudoPot. # 1 for C  read from file:
     /home/max/Desktop/graphite_DFT/Pseudo/C.pbe-n-rrkjus_psl.1.0.0.UPF
     MD5 check sum: 1fdd950c42eb37d8afe3dd2f8d12311e
     Pseudo is Ultrasoft + core correction, Zval =  4.0
     Generated using &quot;atomic&quot; code by A. Dal Corso  v.6.3MaX
     Using radial grid of 1073 points,  4 beta functions with: 
                l(1) =   0
                l(2) =   0
                l(3) =   1
                l(4) =   1
     Q(r) pseudized with 0 coefficients 


     atomic species   valence    mass     pseudopotential
        C              4.00    12.01100     C ( 1.00)

      8 Sym. Ops., with inversion, found ( 4 have fractional translation)


                                    s                        frac. trans.

      isym =  1     identity                                     

 cryst.   s( 1) = (     1          0          0      )
                  (     0          1          0      )
                  (     0          0          1      )

 cart.    s( 1) = (  1.0000000  0.0000000  0.0000000 )
                  (  0.0000000  1.0000000  0.0000000 )
                  (  0.0000000  0.0000000  1.0000000 )


      isym =  2     180 deg rotation - cart. axis [0,0,1]        

 cryst.   s( 2) = (    -1          0          0      )    f =(  0.0000000 )
                  (     0         -1          0      )       (  0.0000000 )
                  (     0          0          1      )       ( -0.5000000 )

 cart.    s( 2) = ( -1.0000000  0.0000000  0.0000000 )    f =(  0.0000000 )
                  (  0.0000000 -1.0000000  0.0000000 )       (  0.0000000 )
                  (  0.0000000  0.0000000  1.0000000 )       ( -1.6862899 )


      isym =  3     180 deg rotation - cart. axis [0,1,0]        

 cryst.   s( 3) = (    -1          0          0      )    f =(  0.0000000 )
                  (     1          1          0      )       (  0.0000000 )
                  (     0          0         -1      )       (  0.5000000 )

 cart.    s( 3) = ( -1.0000000  0.0000000  0.0000000 )    f =(  0.0000000 )
                  (  0.0000000  1.0000000  0.0000000 )       (  0.0000000 )
                  (  0.0000000  0.0000000 -1.0000000 )       (  1.6862899 )


      isym =  4     180 deg rotation - cart. axis [1,0,0]        

 cryst.   s( 4) = (     1          0          0      )
                  (    -1         -1          0      )
                  (     0          0         -1      )

 cart.    s( 4) = (  1.0000000  0.0000000  0.0000000 )
                  (  0.0000000 -1.0000000  0.0000000 )
                  (  0.0000000  0.0000000 -1.0000000 )


      isym =  5     inversion                                    

 cryst.   s( 5) = (    -1          0          0      )
                  (     0         -1          0      )
                  (     0          0         -1      )

 cart.    s( 5) = ( -1.0000000  0.0000000  0.0000000 )
                  (  0.0000000 -1.0000000  0.0000000 )
                  (  0.0000000  0.0000000 -1.0000000 )


      isym =  6     inv. 180 deg rotation - cart. axis [0,0,1]   

 cryst.   s( 6) = (     1          0          0      )    f =(  0.0000000 )
                  (     0          1          0      )       (  0.0000000 )
                  (     0          0         -1      )       (  0.5000000 )

 cart.    s( 6) = (  1.0000000  0.0000000  0.0000000 )    f =(  0.0000000 )
                  (  0.0000000  1.0000000  0.0000000 )       (  0.0000000 )
                  (  0.0000000  0.0000000 -1.0000000 )       (  1.6862899 )


      isym =  7     inv. 180 deg rotation - cart. axis [0,1,0]   

 cryst.   s( 7) = (     1          0          0      )    f =(  0.0000000 )
                  (    -1         -1          0      )       (  0.0000000 )
                  (     0          0          1      )       ( -0.5000000 )

 cart.    s( 7) = (  1.0000000  0.0000000  0.0000000 )    f =(  0.0000000 )
                  (  0.0000000 -1.0000000  0.0000000 )       (  0.0000000 )
                  (  0.0000000  0.0000000  1.0000000 )       ( -1.6862899 )


      isym =  8     inv. 180 deg rotation - cart. axis [1,0,0]   

 cryst.   s( 8) = (    -1          0          0      )
                  (     1          1          0      )
                  (     0          0          1      )

 cart.    s( 8) = ( -1.0000000  0.0000000  0.0000000 )
                  (  0.0000000  1.0000000  0.0000000 )
                  (  0.0000000  0.0000000  1.0000000 )


   Cartesian axes

     site n.     atom                  positions (alat units)
         1           C   tau(   1) = (   0.0000000  -0.0000396   0.8431450  )
         2           C   tau(   2) = (   0.0000000   0.0000396   2.5294349  )
         3           C   tau(   3) = (   0.0000000   0.5762433   0.8431450  )
         4           C   tau(   4) = (   0.4990566   0.2881481   2.5294349  )

   Crystallographic axes

     site n.     atom                  positions (cryst. coord.)
         1           C   tau(   1) = ( -0.0000229 -0.0000458  0.2500000  )
         2           C   tau(   2) = (  0.0000229  0.0000458  0.7500000  )
         3           C   tau(   3) = (  0.3333231  0.6666463  0.2500000  )
         4           C   tau(   4) = (  0.6666769  0.3333537  0.7500000  )

     number of k points=  5409  Methfessel-Paxton smearing, width (Ry)=  0.0500
                       cart. coord. in units 2pi/alat
        k(    1) = (   0.0000000   0.0000000   0.0000000), wk =   0.0000543
        k(    2) = (   0.0000000   0.0000000   0.0185318), wk =   0.0001085
        k(    3) = (   0.0000000   0.0000000   0.0370636), wk =   0.0001085
        k(    4) = (   0.0000000   0.0000000   0.0555954), wk =   0.0001085
        k(    5) = (   0.0000000   0.0000000   0.0741272), wk =   0.0001085
        k(    6) = (   0.0000000   0.0000000   0.0926590), wk =   0.0001085
        k(    7) = (   0.0000000   0.0000000   0.1111908), wk =   0.0001085
        k(    8) = (   0.0000000   0.0000000   0.1297227), wk =   0.0001085
        k(    9) = (   0.0000000   0.0000000  -0.1482545), wk =   0.0000543
        k(   10) = (   0.0000000   0.0241017   0.0000000), wk =   0.0001085
        k(   11) = (   0.0000000   0.0241017   0.0185318), wk =   0.0002170
        k(   12) = (   0.0000000   0.0241017   0.0370636), wk =   0.0002170
        k(   13) = (   0.0000000   0.0241017   0.0555954), wk =   0.0002170
        k(   14) = (   0.0000000   0.0241017   0.0741272), wk =   0.0002170
        k(   15) = (   0.0000000   0.0241017   0.0926590), wk =   0.0002170
        k(   16) = (   0.0000000   0.0241017   0.1111908), wk =   0.0002170
        k(   17) = (   0.0000000   0.0241017   0.1297227), wk =   0.0002170
        k(   18) = (   0.0000000   0.0241017  -0.1482545), wk =   0.0001085
        k(   19) = (   0.0000000   0.0482035   0.0000000), wk =   0.0001085
        k(   20) = (   0.0000000   0.0482035   0.0185318), wk =   0.0002170
        k(   21) = (   0.0000000   0.0482035   0.0370636), wk =   0.0002170
        k(   22) = (   0.0000000   0.0482035   0.0555954), wk =   0.0002170
        k(   23) = (   0.0000000   0.0482035   0.0741272), wk =   0.0002170
        k(   24) = (   0.0000000   0.0482035   0.0926590), wk =   0.0002170
        k(   25) = (   0.0000000   0.0482035   0.1111908), wk =   0.0002170
        k(   26) = (   0.0000000   0.0482035   0.1297227), wk =   0.0002170
        k(   27) = (   0.0000000   0.0482035  -0.1482545), wk =   0.0001085
        k(   28) = (   0.0000000   0.0723052   0.0000000), wk =   0.0001085
        k(   29) = (   0.0000000   0.0723052   0.0185318), wk =   0.0002170
        k(   30) = (   0.0000000   0.0723052   0.0370636), wk =   0.0002170
        k(   31) = (   0.0000000   0.0723052   0.0555954), wk =   0.0002170
        k(   32) = (   0.0000000   0.0723052   0.0741272), wk =   0.0002170
        k(   33) = (   0.0000000   0.0723052   0.0926590), wk =   0.0002170
        k(   34) = (   0.0000000   0.0723052   0.1111908), wk =   0.0002170
        k(   35) = (   0.0000000   0.0723052   0.1297227), wk =   0.0002170
        k(   36) = (   0.0000000   0.0723052  -0.1482545), wk =   0.0001085
        k(   37) = (   0.0000000   0.0964069   0.0000000), wk =   0.0001085
        k(   38) = (   0.0000000   0.0964069   0.0185318), wk =   0.0002170
        k(   39) = (   0.0000000   0.0964069   0.0370636), wk =   0.0002170
        k(   40) = (   0.0000000   0.0964069   0.0555954), wk =   0.0002170
        k(   41) = (   0.0000000   0.0964069   0.0741272), wk =   0.0002170
        k(   42) = (   0.0000000   0.0964069   0.0926590), wk =   0.0002170
        k(   43) = (   0.0000000   0.0964069   0.1111908), wk =   0.0002170
        k(   44) = (   0.0000000   0.0964069   0.1297227), wk =   0.0002170
        k(   45) = (   0.0000000   0.0964069  -0.1482545), wk =   0.0001085
        k(   46) = (   0.0000000   0.1205087   0.0000000), wk =   0.0001085
        k(   47) = (   0.0000000   0.1205087   0.0185318), wk =   0.0002170
        k(   48) = (   0.0000000   0.1205087   0.0370636), wk =   0.0002170
        k(   49) = (   0.0000000   0.1205087   0.0555954), wk =   0.0002170
        k(   50) = (   0.0000000   0.1205087   0.0741272), wk =   0.0002170
        k(   51) = (   0.0000000   0.1205087   0.0926590), wk =   0.0002170
        k(   52) = (   0.0000000   0.1205087   0.1111908), wk =   0.0002170
        k(   53) = (   0.0000000   0.1205087   0.1297227), wk =   0.0002170
        k(   54) = (   0.0000000   0.1205087  -0.1482545), wk =   0.0001085
        k(   55) = (   0.0000000   0.1446104   0.0000000), wk =   0.0001085
        k(   56) = (   0.0000000   0.1446104   0.0185318), wk =   0.0002170
        k(   57) = (   0.0000000   0.1446104   0.0370636), wk =   0.0002170
        k(   58) = (   0.0000000   0.1446104   0.0555954), wk =   0.0002170
        k(   59) = (   0.0000000   0.1446104   0.0741272), wk =   0.0002170
        k(   60) = (   0.0000000   0.1446104   0.0926590), wk =   0.0002170
        k(   61) = (   0.0000000   0.1446104   0.1111908), wk =   0.0002170
        k(   62) = (   0.0000000   0.1446104   0.1297227), wk =   0.0002170
        k(   63) = (   0.0000000   0.1446104  -0.1482545), wk =   0.0001085
        k(   64) = (   0.0000000   0.1687122   0.0000000), wk =   0.0001085
        k(   65) = (   0.0000000   0.1687122   0.0185318), wk =   0.0002170
        k(   66) = (   0.0000000   0.1687122   0.0370636), wk =   0.0002170
        k(   67) = (   0.0000000   0.1687122   0.0555954), wk =   0.0002170
        k(   68) = (   0.0000000   0.1687122   0.0741272), wk =   0.0002170
        k(   69) = (   0.0000000   0.1687122   0.0926590), wk =   0.0002170
        k(   70) = (   0.0000000   0.1687122   0.1111908), wk =   0.0002170
        k(   71) = (   0.0000000   0.1687122   0.1297227), wk =   0.0002170
        k(   72) = (   0.0000000   0.1687122  -0.1482545), wk =   0.0001085
        k(   73) = (   0.0000000   0.1928139   0.0000000), wk =   0.0001085
        k(   74) = (   0.0000000   0.1928139   0.0185318), wk =   0.0002170
        k(   75) = (   0.0000000   0.1928139   0.0370636), wk =   0.0002170
        k(   76) = (   0.0000000   0.1928139   0.0555954), wk =   0.0002170
        k(   77) = (   0.0000000   0.1928139   0.0741272), wk =   0.0002170
        k(   78) = (   0.0000000   0.1928139   0.0926590), wk =   0.0002170
        k(   79) = (   0.0000000   0.1928139   0.1111908), wk =   0.0002170
        k(   80) = (   0.0000000   0.1928139   0.1297227), wk =   0.0002170
        k(   81) = (   0.0000000   0.1928139  -0.1482545), wk =   0.0001085
        k(   82) = (   0.0000000   0.2169156   0.0000000), wk =   0.0001085
        k(   83) = (   0.0000000   0.2169156   0.0185318), wk =   0.0002170
        k(   84) = (   0.0000000   0.2169156   0.0370636), wk =   0.0002170
        k(   85) = (   0.0000000   0.2169156   0.0555954), wk =   0.0002170
        k(   86) = (   0.0000000   0.2169156   0.0741272), wk =   0.0002170
        k(   87) = (   0.0000000   0.2169156   0.0926590), wk =   0.0002170
        k(   88) = (   0.0000000   0.2169156   0.1111908), wk =   0.0002170
        k(   89) = (   0.0000000   0.2169156   0.1297227), wk =   0.0002170
        k(   90) = (   0.0000000   0.2169156  -0.1482545), wk =   0.0001085
        k(   91) = (   0.0000000   0.2410174   0.0000000), wk =   0.0001085
        k(   92) = (   0.0000000   0.2410174   0.0185318), wk =   0.0002170
        k(   93) = (   0.0000000   0.2410174   0.0370636), wk =   0.0002170
        k(   94) = (   0.0000000   0.2410174   0.0555954), wk =   0.0002170
        k(   95) = (   0.0000000   0.2410174   0.0741272), wk =   0.0002170
        k(   96) = (   0.0000000   0.2410174   0.0926590), wk =   0.0002170
        k(   97) = (   0.0000000   0.2410174   0.1111908), wk =   0.0002170
        k(   98) = (   0.0000000   0.2410174   0.1297227), wk =   0.0002170
        k(   99) = (   0.0000000   0.2410174  -0.1482545), wk =   0.0001085
        k(  100) = (   0.0000000   0.2651191   0.0000000), wk =   0.0001085
        k(  101) = (   0.0000000   0.2651191   0.0185318), wk =   0.0002170
        k(  102) = (   0.0000000   0.2651191   0.0370636), wk =   0.0002170
        k(  103) = (   0.0000000   0.2651191   0.0555954), wk =   0.0002170
        k(  104) = (   0.0000000   0.2651191   0.0741272), wk =   0.0002170
        k(  105) = (   0.0000000   0.2651191   0.0926590), wk =   0.0002170
        k(  106) = (   0.0000000   0.2651191   0.1111908), wk =   0.0002170
        k(  107) = (   0.0000000   0.2651191   0.1297227), wk =   0.0002170
        k(  108) = (   0.0000000   0.2651191  -0.1482545), wk =   0.0001085
        k(  109) = (   0.0000000   0.2892208   0.0000000), wk =   0.0001085
        k(  110) = (   0.0000000   0.2892208   0.0185318), wk =   0.0002170
        k(  111) = (   0.0000000   0.2892208   0.0370636), wk =   0.0002170
        k(  112) = (   0.0000000   0.2892208   0.0555954), wk =   0.0002170
        k(  113) = (   0.0000000   0.2892208   0.0741272), wk =   0.0002170
        k(  114) = (   0.0000000   0.2892208   0.0926590), wk =   0.0002170
        k(  115) = (   0.0000000   0.2892208   0.1111908), wk =   0.0002170
        k(  116) = (   0.0000000   0.2892208   0.1297227), wk =   0.0002170
        k(  117) = (   0.0000000   0.2892208  -0.1482545), wk =   0.0001085
        k(  118) = (   0.0000000   0.3133226   0.0000000), wk =   0.0001085
        k(  119) = (   0.0000000   0.3133226   0.0185318), wk =   0.0002170
        k(  120) = (   0.0000000   0.3133226   0.0370636), wk =   0.0002170
        k(  121) = (   0.0000000   0.3133226   0.0555954), wk =   0.0002170
        k(  122) = (   0.0000000   0.3133226   0.0741272), wk =   0.0002170
        k(  123) = (   0.0000000   0.3133226   0.0926590), wk =   0.0002170
        k(  124) = (   0.0000000   0.3133226   0.1111908), wk =   0.0002170
        k(  125) = (   0.0000000   0.3133226   0.1297227), wk =   0.0002170
        k(  126) = (   0.0000000   0.3133226  -0.1482545), wk =   0.0001085
        k(  127) = (   0.0000000   0.3374243   0.0000000), wk =   0.0001085
        k(  128) = (   0.0000000   0.3374243   0.0185318), wk =   0.0002170
        k(  129) = (   0.0000000   0.3374243   0.0370636), wk =   0.0002170
        k(  130) = (   0.0000000   0.3374243   0.0555954), wk =   0.0002170
        k(  131) = (   0.0000000   0.3374243   0.0741272), wk =   0.0002170
        k(  132) = (   0.0000000   0.3374243   0.0926590), wk =   0.0002170
        k(  133) = (   0.0000000   0.3374243   0.1111908), wk =   0.0002170
        k(  134) = (   0.0000000   0.3374243   0.1297227), wk =   0.0002170
        k(  135) = (   0.0000000   0.3374243  -0.1482545), wk =   0.0001085
        k(  136) = (   0.0000000   0.3615261   0.0000000), wk =   0.0001085
        k(  137) = (   0.0000000   0.3615261   0.0185318), wk =   0.0002170
        k(  138) = (   0.0000000   0.3615261   0.0370636), wk =   0.0002170
        k(  139) = (   0.0000000   0.3615261   0.0555954), wk =   0.0002170
        k(  140) = (   0.0000000   0.3615261   0.0741272), wk =   0.0002170
        k(  141) = (   0.0000000   0.3615261   0.0926590), wk =   0.0002170
        k(  142) = (   0.0000000   0.3615261   0.1111908), wk =   0.0002170
        k(  143) = (   0.0000000   0.3615261   0.1297227), wk =   0.0002170
        k(  144) = (   0.0000000   0.3615261  -0.1482545), wk =   0.0001085
        k(  145) = (   0.0000000   0.3856278   0.0000000), wk =   0.0001085
        k(  146) = (   0.0000000   0.3856278   0.0185318), wk =   0.0002170
        k(  147) = (   0.0000000   0.3856278   0.0370636), wk =   0.0002170
        k(  148) = (   0.0000000   0.3856278   0.0555954), wk =   0.0002170
        k(  149) = (   0.0000000   0.3856278   0.0741272), wk =   0.0002170
        k(  150) = (   0.0000000   0.3856278   0.0926590), wk =   0.0002170
        k(  151) = (   0.0000000   0.3856278   0.1111908), wk =   0.0002170
        k(  152) = (   0.0000000   0.3856278   0.1297227), wk =   0.0002170
        k(  153) = (   0.0000000   0.3856278  -0.1482545), wk =   0.0001085
        k(  154) = (   0.0000000   0.4097295   0.0000000), wk =   0.0001085
        k(  155) = (   0.0000000   0.4097295   0.0185318), wk =   0.0002170
        k(  156) = (   0.0000000   0.4097295   0.0370636), wk =   0.0002170
        k(  157) = (   0.0000000   0.4097295   0.0555954), wk =   0.0002170
        k(  158) = (   0.0000000   0.4097295   0.0741272), wk =   0.0002170
        k(  159) = (   0.0000000   0.4097295   0.0926590), wk =   0.0002170
        k(  160) = (   0.0000000   0.4097295   0.1111908), wk =   0.0002170
        k(  161) = (   0.0000000   0.4097295   0.1297227), wk =   0.0002170
        k(  162) = (   0.0000000   0.4097295  -0.1482545), wk =   0.0001085
        k(  163) = (   0.0000000   0.4338313   0.0000000), wk =   0.0001085
        k(  164) = (   0.0000000   0.4338313   0.0185318), wk =   0.0002170
        k(  165) = (   0.0000000   0.4338313   0.0370636), wk =   0.0002170
        k(  166) = (   0.0000000   0.4338313   0.0555954), wk =   0.0002170
        k(  167) = (   0.0000000   0.4338313   0.0741272), wk =   0.0002170
        k(  168) = (   0.0000000   0.4338313   0.0926590), wk =   0.0002170
        k(  169) = (   0.0000000   0.4338313   0.1111908), wk =   0.0002170
        k(  170) = (   0.0000000   0.4338313   0.1297227), wk =   0.0002170
        k(  171) = (   0.0000000   0.4338313  -0.1482545), wk =   0.0001085
        k(  172) = (   0.0000000   0.4579330   0.0000000), wk =   0.0001085
        k(  173) = (   0.0000000   0.4579330   0.0185318), wk =   0.0002170
        k(  174) = (   0.0000000   0.4579330   0.0370636), wk =   0.0002170
        k(  175) = (   0.0000000   0.4579330   0.0555954), wk =   0.0002170
        k(  176) = (   0.0000000   0.4579330   0.0741272), wk =   0.0002170
        k(  177) = (   0.0000000   0.4579330   0.0926590), wk =   0.0002170
        k(  178) = (   0.0000000   0.4579330   0.1111908), wk =   0.0002170
        k(  179) = (   0.0000000   0.4579330   0.1297227), wk =   0.0002170
        k(  180) = (   0.0000000   0.4579330  -0.1482545), wk =   0.0001085
        k(  181) = (   0.0000000   0.4820347   0.0000000), wk =   0.0001085
        k(  182) = (   0.0000000   0.4820347   0.0185318), wk =   0.0002170
        k(  183) = (   0.0000000   0.4820347   0.0370636), wk =   0.0002170
        k(  184) = (   0.0000000   0.4820347   0.0555954), wk =   0.0002170
        k(  185) = (   0.0000000   0.4820347   0.0741272), wk =   0.0002170
        k(  186) = (   0.0000000   0.4820347   0.0926590), wk =   0.0002170
        k(  187) = (   0.0000000   0.4820347   0.1111908), wk =   0.0002170
        k(  188) = (   0.0000000   0.4820347   0.1297227), wk =   0.0002170
        k(  189) = (   0.0000000   0.4820347  -0.1482545), wk =   0.0001085
        k(  190) = (   0.0000000   0.5061365   0.0000000), wk =   0.0001085
        k(  191) = (   0.0000000   0.5061365   0.0185318), wk =   0.0002170
        k(  192) = (   0.0000000   0.5061365   0.0370636), wk =   0.0002170
        k(  193) = (   0.0000000   0.5061365   0.0555954), wk =   0.0002170
        k(  194) = (   0.0000000   0.5061365   0.0741272), wk =   0.0002170
        k(  195) = (   0.0000000   0.5061365   0.0926590), wk =   0.0002170
        k(  196) = (   0.0000000   0.5061365   0.1111908), wk =   0.0002170
        k(  197) = (   0.0000000   0.5061365   0.1297227), wk =   0.0002170
        k(  198) = (   0.0000000   0.5061365  -0.1482545), wk =   0.0001085
        k(  199) = (   0.0000000   0.5302382   0.0000000), wk =   0.0001085
        k(  200) = (   0.0000000   0.5302382   0.0185318), wk =   0.0002170
        k(  201) = (   0.0000000   0.5302382   0.0370636), wk =   0.0002170
        k(  202) = (   0.0000000   0.5302382   0.0555954), wk =   0.0002170
        k(  203) = (   0.0000000   0.5302382   0.0741272), wk =   0.0002170
        k(  204) = (   0.0000000   0.5302382   0.0926590), wk =   0.0002170
        k(  205) = (   0.0000000   0.5302382   0.1111908), wk =   0.0002170
        k(  206) = (   0.0000000   0.5302382   0.1297227), wk =   0.0002170
        k(  207) = (   0.0000000   0.5302382  -0.1482545), wk =   0.0001085
        k(  208) = (   0.0000000   0.5543399   0.0000000), wk =   0.0001085
        k(  209) = (   0.0000000   0.5543399   0.0185318), wk =   0.0002170
        k(  210) = (   0.0000000   0.5543399   0.0370636), wk =   0.0002170
        k(  211) = (   0.0000000   0.5543399   0.0555954), wk =   0.0002170
        k(  212) = (   0.0000000   0.5543399   0.0741272), wk =   0.0002170
        k(  213) = (   0.0000000   0.5543399   0.0926590), wk =   0.0002170
        k(  214) = (   0.0000000   0.5543399   0.1111908), wk =   0.0002170
        k(  215) = (   0.0000000   0.5543399   0.1297227), wk =   0.0002170
        k(  216) = (   0.0000000   0.5543399  -0.1482545), wk =   0.0001085
        k(  217) = (   0.0000000  -0.5784417   0.0000000), wk =   0.0000543
        k(  218) = (   0.0000000  -0.5784417   0.0185318), wk =   0.0001085
        k(  219) = (   0.0000000  -0.5784417   0.0370636), wk =   0.0001085
        k(  220) = (   0.0000000  -0.5784417   0.0555954), wk =   0.0001085
        k(  221) = (   0.0000000  -0.5784417   0.0741272), wk =   0.0001085
        k(  222) = (   0.0000000  -0.5784417   0.0926590), wk =   0.0001085
        k(  223) = (   0.0000000  -0.5784417   0.1111908), wk =   0.0001085
        k(  224) = (   0.0000000  -0.5784417   0.1297227), wk =   0.0001085
        k(  225) = (   0.0000000  -0.5784417  -0.1482545), wk =   0.0000543
        k(  226) = (   0.0208727   0.0361526   0.0000000), wk =   0.0002170
        k(  227) = (   0.0208727   0.0361526   0.0185318), wk =   0.0004340
        k(  228) = (   0.0208727   0.0361526   0.0370636), wk =   0.0004340
        k(  229) = (   0.0208727   0.0361526   0.0555954), wk =   0.0004340
        k(  230) = (   0.0208727   0.0361526   0.0741272), wk =   0.0004340
        k(  231) = (   0.0208727   0.0361526   0.0926590), wk =   0.0004340
        k(  232) = (   0.0208727   0.0361526   0.1111908), wk =   0.0004340
        k(  233) = (   0.0208727   0.0361526   0.1297227), wk =   0.0004340
        k(  234) = (   0.0208727   0.0361526  -0.1482545), wk =   0.0002170
        k(  235) = (   0.0208727   0.0602543   0.0000000), wk =   0.0002170
        k(  236) = (   0.0208727   0.0602543   0.0185318), wk =   0.0004340
        k(  237) = (   0.0208727   0.0602543   0.0370636), wk =   0.0004340
        k(  238) = (   0.0208727   0.0602543   0.0555954), wk =   0.0004340
        k(  239) = (   0.0208727   0.0602543   0.0741272), wk =   0.0004340
        k(  240) = (   0.0208727   0.0602543   0.0926590), wk =   0.0004340
        k(  241) = (   0.0208727   0.0602543   0.1111908), wk =   0.0004340
        k(  242) = (   0.0208727   0.0602543   0.1297227), wk =   0.0004340
        k(  243) = (   0.0208727   0.0602543  -0.1482545), wk =   0.0002170
        k(  244) = (   0.0208727   0.0843561   0.0000000), wk =   0.0002170
        k(  245) = (   0.0208727   0.0843561   0.0185318), wk =   0.0004340
        k(  246) = (   0.0208727   0.0843561   0.0370636), wk =   0.0004340
        k(  247) = (   0.0208727   0.0843561   0.0555954), wk =   0.0004340
        k(  248) = (   0.0208727   0.0843561   0.0741272), wk =   0.0004340
        k(  249) = (   0.0208727   0.0843561   0.0926590), wk =   0.0004340
        k(  250) = (   0.0208727   0.0843561   0.1111908), wk =   0.0004340
        k(  251) = (   0.0208727   0.0843561   0.1297227), wk =   0.0004340
        k(  252) = (   0.0208727   0.0843561  -0.1482545), wk =   0.0002170
        k(  253) = (   0.0208727   0.1084578   0.0000000), wk =   0.0002170
        k(  254) = (   0.0208727   0.1084578   0.0185318), wk =   0.0004340
        k(  255) = (   0.0208727   0.1084578   0.0370636), wk =   0.0004340
        k(  256) = (   0.0208727   0.1084578   0.0555954), wk =   0.0004340
        k(  257) = (   0.0208727   0.1084578   0.0741272), wk =   0.0004340
        k(  258) = (   0.0208727   0.1084578   0.0926590), wk =   0.0004340
        k(  259) = (   0.0208727   0.1084578   0.1111908), wk =   0.0004340
        k(  260) = (   0.0208727   0.1084578   0.1297227), wk =   0.0004340
        k(  261) = (   0.0208727   0.1084578  -0.1482545), wk =   0.0002170
        k(  262) = (   0.0208727   0.1325596   0.0000000), wk =   0.0002170
        k(  263) = (   0.0208727   0.1325596   0.0185318), wk =   0.0004340
        k(  264) = (   0.0208727   0.1325596   0.0370636), wk =   0.0004340
        k(  265) = (   0.0208727   0.1325596   0.0555954), wk =   0.0004340
        k(  266) = (   0.0208727   0.1325596   0.0741272), wk =   0.0004340
        k(  267) = (   0.0208727   0.1325596   0.0926590), wk =   0.0004340
        k(  268) = (   0.0208727   0.1325596   0.1111908), wk =   0.0004340
        k(  269) = (   0.0208727   0.1325596   0.1297227), wk =   0.0004340
        k(  270) = (   0.0208727   0.1325596  -0.1482545), wk =   0.0002170
        k(  271) = (   0.0208727   0.1566613   0.0000000), wk =   0.0002170
        k(  272) = (   0.0208727   0.1566613   0.0185318), wk =   0.0004340
        k(  273) = (   0.0208727   0.1566613   0.0370636), wk =   0.0004340
        k(  274) = (   0.0208727   0.1566613   0.0555954), wk =   0.0004340
        k(  275) = (   0.0208727   0.1566613   0.0741272), wk =   0.0004340
        k(  276) = (   0.0208727   0.1566613   0.0926590), wk =   0.0004340
        k(  277) = (   0.0208727   0.1566613   0.1111908), wk =   0.0004340
        k(  278) = (   0.0208727   0.1566613   0.1297227), wk =   0.0004340
        k(  279) = (   0.0208727   0.1566613  -0.1482545), wk =   0.0002170
        k(  280) = (   0.0208727   0.1807630   0.0000000), wk =   0.0002170
        k(  281) = (   0.0208727   0.1807630   0.0185318), wk =   0.0004340
        k(  282) = (   0.0208727   0.1807630   0.0370636), wk =   0.0004340
        k(  283) = (   0.0208727   0.1807630   0.0555954), wk =   0.0004340
        k(  284) = (   0.0208727   0.1807630   0.0741272), wk =   0.0004340
        k(  285) = (   0.0208727   0.1807630   0.0926590), wk =   0.0004340
        k(  286) = (   0.0208727   0.1807630   0.1111908), wk =   0.0004340
        k(  287) = (   0.0208727   0.1807630   0.1297227), wk =   0.0004340
        k(  288) = (   0.0208727   0.1807630  -0.1482545), wk =   0.0002170
        k(  289) = (   0.0208727   0.2048648   0.0000000), wk =   0.0002170
        k(  290) = (   0.0208727   0.2048648   0.0185318), wk =   0.0004340
        k(  291) = (   0.0208727   0.2048648   0.0370636), wk =   0.0004340
        k(  292) = (   0.0208727   0.2048648   0.0555954), wk =   0.0004340
        k(  293) = (   0.0208727   0.2048648   0.0741272), wk =   0.0004340
        k(  294) = (   0.0208727   0.2048648   0.0926590), wk =   0.0004340
        k(  295) = (   0.0208727   0.2048648   0.1111908), wk =   0.0004340
        k(  296) = (   0.0208727   0.2048648   0.1297227), wk =   0.0004340
        k(  297) = (   0.0208727   0.2048648  -0.1482545), wk =   0.0002170
        k(  298) = (   0.0208727   0.2289665   0.0000000), wk =   0.0002170
        k(  299) = (   0.0208727   0.2289665   0.0185318), wk =   0.0004340
        k(  300) = (   0.0208727   0.2289665   0.0370636), wk =   0.0004340
        k(  301) = (   0.0208727   0.2289665   0.0555954), wk =   0.0004340
        k(  302) = (   0.0208727   0.2289665   0.0741272), wk =   0.0004340
        k(  303) = (   0.0208727   0.2289665   0.0926590), wk =   0.0004340
        k(  304) = (   0.0208727   0.2289665   0.1111908), wk =   0.0004340
        k(  305) = (   0.0208727   0.2289665   0.1297227), wk =   0.0004340
        k(  306) = (   0.0208727   0.2289665  -0.1482545), wk =   0.0002170
        k(  307) = (   0.0208727   0.2530682   0.0000000), wk =   0.0002170
        k(  308) = (   0.0208727   0.2530682   0.0185318), wk =   0.0004340
        k(  309) = (   0.0208727   0.2530682   0.0370636), wk =   0.0004340
        k(  310) = (   0.0208727   0.2530682   0.0555954), wk =   0.0004340
        k(  311) = (   0.0208727   0.2530682   0.0741272), wk =   0.0004340
        k(  312) = (   0.0208727   0.2530682   0.0926590), wk =   0.0004340
        k(  313) = (   0.0208727   0.2530682   0.1111908), wk =   0.0004340
        k(  314) = (   0.0208727   0.2530682   0.1297227), wk =   0.0004340
        k(  315) = (   0.0208727   0.2530682  -0.1482545), wk =   0.0002170
        k(  316) = (   0.0208727   0.2771700   0.0000000), wk =   0.0002170
        k(  317) = (   0.0208727   0.2771700   0.0185318), wk =   0.0004340
        k(  318) = (   0.0208727   0.2771700   0.0370636), wk =   0.0004340
        k(  319) = (   0.0208727   0.2771700   0.0555954), wk =   0.0004340
        k(  320) = (   0.0208727   0.2771700   0.0741272), wk =   0.0004340
        k(  321) = (   0.0208727   0.2771700   0.0926590), wk =   0.0004340
        k(  322) = (   0.0208727   0.2771700   0.1111908), wk =   0.0004340
        k(  323) = (   0.0208727   0.2771700   0.1297227), wk =   0.0004340
        k(  324) = (   0.0208727   0.2771700  -0.1482545), wk =   0.0002170
        k(  325) = (   0.0208727   0.3012717   0.0000000), wk =   0.0002170
        k(  326) = (   0.0208727   0.3012717   0.0185318), wk =   0.0004340
        k(  327) = (   0.0208727   0.3012717   0.0370636), wk =   0.0004340
        k(  328) = (   0.0208727   0.3012717   0.0555954), wk =   0.0004340
        k(  329) = (   0.0208727   0.3012717   0.0741272), wk =   0.0004340
        k(  330) = (   0.0208727   0.3012717   0.0926590), wk =   0.0004340
        k(  331) = (   0.0208727   0.3012717   0.1111908), wk =   0.0004340
        k(  332) = (   0.0208727   0.3012717   0.1297227), wk =   0.0004340
        k(  333) = (   0.0208727   0.3012717  -0.1482545), wk =   0.0002170
        k(  334) = (   0.0208727   0.3253734   0.0000000), wk =   0.0002170
        k(  335) = (   0.0208727   0.3253734   0.0185318), wk =   0.0004340
        k(  336) = (   0.0208727   0.3253734   0.0370636), wk =   0.0004340
        k(  337) = (   0.0208727   0.3253734   0.0555954), wk =   0.0004340
        k(  338) = (   0.0208727   0.3253734   0.0741272), wk =   0.0004340
        k(  339) = (   0.0208727   0.3253734   0.0926590), wk =   0.0004340
        k(  340) = (   0.0208727   0.3253734   0.1111908), wk =   0.0004340
        k(  341) = (   0.0208727   0.3253734   0.1297227), wk =   0.0004340
        k(  342) = (   0.0208727   0.3253734  -0.1482545), wk =   0.0002170
        k(  343) = (   0.0208727   0.3494752   0.0000000), wk =   0.0002170
        k(  344) = (   0.0208727   0.3494752   0.0185318), wk =   0.0004340
        k(  345) = (   0.0208727   0.3494752   0.0370636), wk =   0.0004340
        k(  346) = (   0.0208727   0.3494752   0.0555954), wk =   0.0004340
        k(  347) = (   0.0208727   0.3494752   0.0741272), wk =   0.0004340
        k(  348) = (   0.0208727   0.3494752   0.0926590), wk =   0.0004340
        k(  349) = (   0.0208727   0.3494752   0.1111908), wk =   0.0004340
        k(  350) = (   0.0208727   0.3494752   0.1297227), wk =   0.0004340
        k(  351) = (   0.0208727   0.3494752  -0.1482545), wk =   0.0002170
        k(  352) = (   0.0208727   0.3735769   0.0000000), wk =   0.0002170
        k(  353) = (   0.0208727   0.3735769   0.0185318), wk =   0.0004340
        k(  354) = (   0.0208727   0.3735769   0.0370636), wk =   0.0004340
        k(  355) = (   0.0208727   0.3735769   0.0555954), wk =   0.0004340
        k(  356) = (   0.0208727   0.3735769   0.0741272), wk =   0.0004340
        k(  357) = (   0.0208727   0.3735769   0.0926590), wk =   0.0004340
        k(  358) = (   0.0208727   0.3735769   0.1111908), wk =   0.0004340
        k(  359) = (   0.0208727   0.3735769   0.1297227), wk =   0.0004340
        k(  360) = (   0.0208727   0.3735769  -0.1482545), wk =   0.0002170
        k(  361) = (   0.0208727   0.3976787   0.0000000), wk =   0.0002170
        k(  362) = (   0.0208727   0.3976787   0.0185318), wk =   0.0004340
        k(  363) = (   0.0208727   0.3976787   0.0370636), wk =   0.0004340
        k(  364) = (   0.0208727   0.3976787   0.0555954), wk =   0.0004340
        k(  365) = (   0.0208727   0.3976787   0.0741272), wk =   0.0004340
        k(  366) = (   0.0208727   0.3976787   0.0926590), wk =   0.0004340
        k(  367) = (   0.0208727   0.3976787   0.1111908), wk =   0.0004340
        k(  368) = (   0.0208727   0.3976787   0.1297227), wk =   0.0004340
        k(  369) = (   0.0208727   0.3976787  -0.1482545), wk =   0.0002170
        k(  370) = (   0.0208727   0.4217804   0.0000000), wk =   0.0002170
        k(  371) = (   0.0208727   0.4217804   0.0185318), wk =   0.0004340
        k(  372) = (   0.0208727   0.4217804   0.0370636), wk =   0.0004340
        k(  373) = (   0.0208727   0.4217804   0.0555954), wk =   0.0004340
        k(  374) = (   0.0208727   0.4217804   0.0741272), wk =   0.0004340
        k(  375) = (   0.0208727   0.4217804   0.0926590), wk =   0.0004340
        k(  376) = (   0.0208727   0.4217804   0.1111908), wk =   0.0004340
        k(  377) = (   0.0208727   0.4217804   0.1297227), wk =   0.0004340
        k(  378) = (   0.0208727   0.4217804  -0.1482545), wk =   0.0002170
        k(  379) = (   0.0208727   0.4458821   0.0000000), wk =   0.0002170
        k(  380) = (   0.0208727   0.4458821   0.0185318), wk =   0.0004340
        k(  381) = (   0.0208727   0.4458821   0.0370636), wk =   0.0004340
        k(  382) = (   0.0208727   0.4458821   0.0555954), wk =   0.0004340
        k(  383) = (   0.0208727   0.4458821   0.0741272), wk =   0.0004340
        k(  384) = (   0.0208727   0.4458821   0.0926590), wk =   0.0004340
        k(  385) = (   0.0208727   0.4458821   0.1111908), wk =   0.0004340
        k(  386) = (   0.0208727   0.4458821   0.1297227), wk =   0.0004340
        k(  387) = (   0.0208727   0.4458821  -0.1482545), wk =   0.0002170
        k(  388) = (   0.0208727   0.4699839   0.0000000), wk =   0.0002170
        k(  389) = (   0.0208727   0.4699839   0.0185318), wk =   0.0004340
        k(  390) = (   0.0208727   0.4699839   0.0370636), wk =   0.0004340
        k(  391) = (   0.0208727   0.4699839   0.0555954), wk =   0.0004340
        k(  392) = (   0.0208727   0.4699839   0.0741272), wk =   0.0004340
        k(  393) = (   0.0208727   0.4699839   0.0926590), wk =   0.0004340
        k(  394) = (   0.0208727   0.4699839   0.1111908), wk =   0.0004340
        k(  395) = (   0.0208727   0.4699839   0.1297227), wk =   0.0004340
        k(  396) = (   0.0208727   0.4699839  -0.1482545), wk =   0.0002170
        k(  397) = (   0.0208727   0.4940856   0.0000000), wk =   0.0002170
        k(  398) = (   0.0208727   0.4940856   0.0185318), wk =   0.0004340
        k(  399) = (   0.0208727   0.4940856   0.0370636), wk =   0.0004340
        k(  400) = (   0.0208727   0.4940856   0.0555954), wk =   0.0004340
        k(  401) = (   0.0208727   0.4940856   0.0741272), wk =   0.0004340
        k(  402) = (   0.0208727   0.4940856   0.0926590), wk =   0.0004340
        k(  403) = (   0.0208727   0.4940856   0.1111908), wk =   0.0004340
        k(  404) = (   0.0208727   0.4940856   0.1297227), wk =   0.0004340
        k(  405) = (   0.0208727   0.4940856  -0.1482545), wk =   0.0002170
        k(  406) = (   0.0208727   0.5181873   0.0000000), wk =   0.0002170
        k(  407) = (   0.0208727   0.5181873   0.0185318), wk =   0.0004340
        k(  408) = (   0.0208727   0.5181873   0.0370636), wk =   0.0004340
        k(  409) = (   0.0208727   0.5181873   0.0555954), wk =   0.0004340
        k(  410) = (   0.0208727   0.5181873   0.0741272), wk =   0.0004340
        k(  411) = (   0.0208727   0.5181873   0.0926590), wk =   0.0004340
        k(  412) = (   0.0208727   0.5181873   0.1111908), wk =   0.0004340
        k(  413) = (   0.0208727   0.5181873   0.1297227), wk =   0.0004340
        k(  414) = (   0.0208727   0.5181873  -0.1482545), wk =   0.0002170
        k(  415) = (   0.0208727   0.5422891   0.0000000), wk =   0.0002170
        k(  416) = (   0.0208727   0.5422891   0.0185318), wk =   0.0004340
        k(  417) = (   0.0208727   0.5422891   0.0370636), wk =   0.0004340
        k(  418) = (   0.0208727   0.5422891   0.0555954), wk =   0.0004340
        k(  419) = (   0.0208727   0.5422891   0.0741272), wk =   0.0004340
        k(  420) = (   0.0208727   0.5422891   0.0926590), wk =   0.0004340
        k(  421) = (   0.0208727   0.5422891   0.1111908), wk =   0.0004340
        k(  422) = (   0.0208727   0.5422891   0.1297227), wk =   0.0004340
        k(  423) = (   0.0208727   0.5422891  -0.1482545), wk =   0.0002170
        k(  424) = (   0.0208727   0.5663908   0.0000000), wk =   0.0002170
        k(  425) = (   0.0208727   0.5663908   0.0185318), wk =   0.0004340
        k(  426) = (   0.0208727   0.5663908   0.0370636), wk =   0.0004340
        k(  427) = (   0.0208727   0.5663908   0.0555954), wk =   0.0004340
        k(  428) = (   0.0208727   0.5663908   0.0741272), wk =   0.0004340
        k(  429) = (   0.0208727   0.5663908   0.0926590), wk =   0.0004340
        k(  430) = (   0.0208727   0.5663908   0.1111908), wk =   0.0004340
        k(  431) = (   0.0208727   0.5663908   0.1297227), wk =   0.0004340
        k(  432) = (   0.0208727   0.5663908  -0.1482545), wk =   0.0002170
        k(  433) = (   0.0417454   0.0723052   0.0000000), wk =   0.0002170
        k(  434) = (   0.0417454   0.0723052   0.0185318), wk =   0.0004340
        k(  435) = (   0.0417454   0.0723052   0.0370636), wk =   0.0004340
        k(  436) = (   0.0417454   0.0723052   0.0555954), wk =   0.0004340
        k(  437) = (   0.0417454   0.0723052   0.0741272), wk =   0.0004340
        k(  438) = (   0.0417454   0.0723052   0.0926590), wk =   0.0004340
        k(  439) = (   0.0417454   0.0723052   0.1111908), wk =   0.0004340
        k(  440) = (   0.0417454   0.0723052   0.1297227), wk =   0.0004340
        k(  441) = (   0.0417454   0.0723052  -0.1482545), wk =   0.0002170
        k(  442) = (   0.0417454   0.0964069   0.0000000), wk =   0.0002170
        k(  443) = (   0.0417454   0.0964069   0.0185318), wk =   0.0004340
        k(  444) = (   0.0417454   0.0964069   0.0370636), wk =   0.0004340
        k(  445) = (   0.0417454   0.0964069   0.0555954), wk =   0.0004340
        k(  446) = (   0.0417454   0.0964069   0.0741272), wk =   0.0004340
        k(  447) = (   0.0417454   0.0964069   0.0926590), wk =   0.0004340
        k(  448) = (   0.0417454   0.0964069   0.1111908), wk =   0.0004340
        k(  449) = (   0.0417454   0.0964069   0.1297227), wk =   0.0004340
        k(  450) = (   0.0417454   0.0964069  -0.1482545), wk =   0.0002170
        k(  451) = (   0.0417454   0.1205087   0.0000000), wk =   0.0002170
        k(  452) = (   0.0417454   0.1205087   0.0185318), wk =   0.0004340
        k(  453) = (   0.0417454   0.1205087   0.0370636), wk =   0.0004340
        k(  454) = (   0.0417454   0.1205087   0.0555954), wk =   0.0004340
        k(  455) = (   0.0417454   0.1205087   0.0741272), wk =   0.0004340
        k(  456) = (   0.0417454   0.1205087   0.0926590), wk =   0.0004340
        k(  457) = (   0.0417454   0.1205087   0.1111908), wk =   0.0004340
        k(  458) = (   0.0417454   0.1205087   0.1297227), wk =   0.0004340
        k(  459) = (   0.0417454   0.1205087  -0.1482545), wk =   0.0002170
        k(  460) = (   0.0417454   0.1446104   0.0000000), wk =   0.0002170
        k(  461) = (   0.0417454   0.1446104   0.0185318), wk =   0.0004340
        k(  462) = (   0.0417454   0.1446104   0.0370636), wk =   0.0004340
        k(  463) = (   0.0417454   0.1446104   0.0555954), wk =   0.0004340
        k(  464) = (   0.0417454   0.1446104   0.0741272), wk =   0.0004340
        k(  465) = (   0.0417454   0.1446104   0.0926590), wk =   0.0004340
        k(  466) = (   0.0417454   0.1446104   0.1111908), wk =   0.0004340
        k(  467) = (   0.0417454   0.1446104   0.1297227), wk =   0.0004340
        k(  468) = (   0.0417454   0.1446104  -0.1482545), wk =   0.0002170
        k(  469) = (   0.0417454   0.1687122   0.0000000), wk =   0.0002170
        k(  470) = (   0.0417454   0.1687122   0.0185318), wk =   0.0004340
        k(  471) = (   0.0417454   0.1687122   0.0370636), wk =   0.0004340
        k(  472) = (   0.0417454   0.1687122   0.0555954), wk =   0.0004340
        k(  473) = (   0.0417454   0.1687122   0.0741272), wk =   0.0004340
        k(  474) = (   0.0417454   0.1687122   0.0926590), wk =   0.0004340
        k(  475) = (   0.0417454   0.1687122   0.1111908), wk =   0.0004340
        k(  476) = (   0.0417454   0.1687122   0.1297227), wk =   0.0004340
        k(  477) = (   0.0417454   0.1687122  -0.1482545), wk =   0.0002170
        k(  478) = (   0.0417454   0.1928139   0.0000000), wk =   0.0002170
        k(  479) = (   0.0417454   0.1928139   0.0185318), wk =   0.0004340
        k(  480) = (   0.0417454   0.1928139   0.0370636), wk =   0.0004340
        k(  481) = (   0.0417454   0.1928139   0.0555954), wk =   0.0004340
        k(  482) = (   0.0417454   0.1928139   0.0741272), wk =   0.0004340
        k(  483) = (   0.0417454   0.1928139   0.0926590), wk =   0.0004340
        k(  484) = (   0.0417454   0.1928139   0.1111908), wk =   0.0004340
        k(  485) = (   0.0417454   0.1928139   0.1297227), wk =   0.0004340
        k(  486) = (   0.0417454   0.1928139  -0.1482545), wk =   0.0002170
        k(  487) = (   0.0417454   0.2169156   0.0000000), wk =   0.0002170
        k(  488) = (   0.0417454   0.2169156   0.0185318), wk =   0.0004340
        k(  489) = (   0.0417454   0.2169156   0.0370636), wk =   0.0004340
        k(  490) = (   0.0417454   0.2169156   0.0555954), wk =   0.0004340
        k(  491) = (   0.0417454   0.2169156   0.0741272), wk =   0.0004340
        k(  492) = (   0.0417454   0.2169156   0.0926590), wk =   0.0004340
        k(  493) = (   0.0417454   0.2169156   0.1111908), wk =   0.0004340
        k(  494) = (   0.0417454   0.2169156   0.1297227), wk =   0.0004340
        k(  495) = (   0.0417454   0.2169156  -0.1482545), wk =   0.0002170
        k(  496) = (   0.0417454   0.2410174   0.0000000), wk =   0.0002170
        k(  497) = (   0.0417454   0.2410174   0.0185318), wk =   0.0004340
        k(  498) = (   0.0417454   0.2410174   0.0370636), wk =   0.0004340
        k(  499) = (   0.0417454   0.2410174   0.0555954), wk =   0.0004340
        k(  500) = (   0.0417454   0.2410174   0.0741272), wk =   0.0004340
        k(  501) = (   0.0417454   0.2410174   0.0926590), wk =   0.0004340
        k(  502) = (   0.0417454   0.2410174   0.1111908), wk =   0.0004340
        k(  503) = (   0.0417454   0.2410174   0.1297227), wk =   0.0004340
        k(  504) = (   0.0417454   0.2410174  -0.1482545), wk =   0.0002170
        k(  505) = (   0.0417454   0.2651191   0.0000000), wk =   0.0002170
        k(  506) = (   0.0417454   0.2651191   0.0185318), wk =   0.0004340
        k(  507) = (   0.0417454   0.2651191   0.0370636), wk =   0.0004340
        k(  508) = (   0.0417454   0.2651191   0.0555954), wk =   0.0004340
        k(  509) = (   0.0417454   0.2651191   0.0741272), wk =   0.0004340
        k(  510) = (   0.0417454   0.2651191   0.0926590), wk =   0.0004340
        k(  511) = (   0.0417454   0.2651191   0.1111908), wk =   0.0004340
        k(  512) = (   0.0417454   0.2651191   0.1297227), wk =   0.0004340
        k(  513) = (   0.0417454   0.2651191  -0.1482545), wk =   0.0002170
        k(  514) = (   0.0417454   0.2892208   0.0000000), wk =   0.0002170
        k(  515) = (   0.0417454   0.2892208   0.0185318), wk =   0.0004340
        k(  516) = (   0.0417454   0.2892208   0.0370636), wk =   0.0004340
        k(  517) = (   0.0417454   0.2892208   0.0555954), wk =   0.0004340
        k(  518) = (   0.0417454   0.2892208   0.0741272), wk =   0.0004340
        k(  519) = (   0.0417454   0.2892208   0.0926590), wk =   0.0004340
        k(  520) = (   0.0417454   0.2892208   0.1111908), wk =   0.0004340
        k(  521) = (   0.0417454   0.2892208   0.1297227), wk =   0.0004340
        k(  522) = (   0.0417454   0.2892208  -0.1482545), wk =   0.0002170
        k(  523) = (   0.0417454   0.3133226   0.0000000), wk =   0.0002170
        k(  524) = (   0.0417454   0.3133226   0.0185318), wk =   0.0004340
        k(  525) = (   0.0417454   0.3133226   0.0370636), wk =   0.0004340
        k(  526) = (   0.0417454   0.3133226   0.0555954), wk =   0.0004340
        k(  527) = (   0.0417454   0.3133226   0.0741272), wk =   0.0004340
        k(  528) = (   0.0417454   0.3133226   0.0926590), wk =   0.0004340
        k(  529) = (   0.0417454   0.3133226   0.1111908), wk =   0.0004340
        k(  530) = (   0.0417454   0.3133226   0.1297227), wk =   0.0004340
        k(  531) = (   0.0417454   0.3133226  -0.1482545), wk =   0.0002170
        k(  532) = (   0.0417454   0.3374243   0.0000000), wk =   0.0002170
        k(  533) = (   0.0417454   0.3374243   0.0185318), wk =   0.0004340
        k(  534) = (   0.0417454   0.3374243   0.0370636), wk =   0.0004340
        k(  535) = (   0.0417454   0.3374243   0.0555954), wk =   0.0004340
        k(  536) = (   0.0417454   0.3374243   0.0741272), wk =   0.0004340
        k(  537) = (   0.0417454   0.3374243   0.0926590), wk =   0.0004340
        k(  538) = (   0.0417454   0.3374243   0.1111908), wk =   0.0004340
        k(  539) = (   0.0417454   0.3374243   0.1297227), wk =   0.0004340
        k(  540) = (   0.0417454   0.3374243  -0.1482545), wk =   0.0002170
        k(  541) = (   0.0417454   0.3615261   0.0000000), wk =   0.0002170
        k(  542) = (   0.0417454   0.3615261   0.0185318), wk =   0.0004340
        k(  543) = (   0.0417454   0.3615261   0.0370636), wk =   0.0004340
        k(  544) = (   0.0417454   0.3615261   0.0555954), wk =   0.0004340
        k(  545) = (   0.0417454   0.3615261   0.0741272), wk =   0.0004340
        k(  546) = (   0.0417454   0.3615261   0.0926590), wk =   0.0004340
        k(  547) = (   0.0417454   0.3615261   0.1111908), wk =   0.0004340
        k(  548) = (   0.0417454   0.3615261   0.1297227), wk =   0.0004340
        k(  549) = (   0.0417454   0.3615261  -0.1482545), wk =   0.0002170
        k(  550) = (   0.0417454   0.3856278   0.0000000), wk =   0.0002170
        k(  551) = (   0.0417454   0.3856278   0.0185318), wk =   0.0004340
        k(  552) = (   0.0417454   0.3856278   0.0370636), wk =   0.0004340
        k(  553) = (   0.0417454   0.3856278   0.0555954), wk =   0.0004340
        k(  554) = (   0.0417454   0.3856278   0.0741272), wk =   0.0004340
        k(  555) = (   0.0417454   0.3856278   0.0926590), wk =   0.0004340
        k(  556) = (   0.0417454   0.3856278   0.1111908), wk =   0.0004340
        k(  557) = (   0.0417454   0.3856278   0.1297227), wk =   0.0004340
        k(  558) = (   0.0417454   0.3856278  -0.1482545), wk =   0.0002170
        k(  559) = (   0.0417454   0.4097295   0.0000000), wk =   0.0002170
        k(  560) = (   0.0417454   0.4097295   0.0185318), wk =   0.0004340
        k(  561) = (   0.0417454   0.4097295   0.0370636), wk =   0.0004340
        k(  562) = (   0.0417454   0.4097295   0.0555954), wk =   0.0004340
        k(  563) = (   0.0417454   0.4097295   0.0741272), wk =   0.0004340
        k(  564) = (   0.0417454   0.4097295   0.0926590), wk =   0.0004340
        k(  565) = (   0.0417454   0.4097295   0.1111908), wk =   0.0004340
        k(  566) = (   0.0417454   0.4097295   0.1297227), wk =   0.0004340
        k(  567) = (   0.0417454   0.4097295  -0.1482545), wk =   0.0002170
        k(  568) = (   0.0417454   0.4338313   0.0000000), wk =   0.0002170
        k(  569) = (   0.0417454   0.4338313   0.0185318), wk =   0.0004340
        k(  570) = (   0.0417454   0.4338313   0.0370636), wk =   0.0004340
        k(  571) = (   0.0417454   0.4338313   0.0555954), wk =   0.0004340
        k(  572) = (   0.0417454   0.4338313   0.0741272), wk =   0.0004340
        k(  573) = (   0.0417454   0.4338313   0.0926590), wk =   0.0004340
        k(  574) = (   0.0417454   0.4338313   0.1111908), wk =   0.0004340
        k(  575) = (   0.0417454   0.4338313   0.1297227), wk =   0.0004340
        k(  576) = (   0.0417454   0.4338313  -0.1482545), wk =   0.0002170
        k(  577) = (   0.0417454   0.4579330   0.0000000), wk =   0.0002170
        k(  578) = (   0.0417454   0.4579330   0.0185318), wk =   0.0004340
        k(  579) = (   0.0417454   0.4579330   0.0370636), wk =   0.0004340
        k(  580) = (   0.0417454   0.4579330   0.0555954), wk =   0.0004340
        k(  581) = (   0.0417454   0.4579330   0.0741272), wk =   0.0004340
        k(  582) = (   0.0417454   0.4579330   0.0926590), wk =   0.0004340
        k(  583) = (   0.0417454   0.4579330   0.1111908), wk =   0.0004340
        k(  584) = (   0.0417454   0.4579330   0.1297227), wk =   0.0004340
        k(  585) = (   0.0417454   0.4579330  -0.1482545), wk =   0.0002170
        k(  586) = (   0.0417454   0.4820347   0.0000000), wk =   0.0002170
        k(  587) = (   0.0417454   0.4820347   0.0185318), wk =   0.0004340
        k(  588) = (   0.0417454   0.4820347   0.0370636), wk =   0.0004340
        k(  589) = (   0.0417454   0.4820347   0.0555954), wk =   0.0004340
        k(  590) = (   0.0417454   0.4820347   0.0741272), wk =   0.0004340
        k(  591) = (   0.0417454   0.4820347   0.0926590), wk =   0.0004340
        k(  592) = (   0.0417454   0.4820347   0.1111908), wk =   0.0004340
        k(  593) = (   0.0417454   0.4820347   0.1297227), wk =   0.0004340
        k(  594) = (   0.0417454   0.4820347  -0.1482545), wk =   0.0002170
        k(  595) = (   0.0417454   0.5061365   0.0000000), wk =   0.0002170
        k(  596) = (   0.0417454   0.5061365   0.0185318), wk =   0.0004340
        k(  597) = (   0.0417454   0.5061365   0.0370636), wk =   0.0004340
        k(  598) = (   0.0417454   0.5061365   0.0555954), wk =   0.0004340
        k(  599) = (   0.0417454   0.5061365   0.0741272), wk =   0.0004340
        k(  600) = (   0.0417454   0.5061365   0.0926590), wk =   0.0004340
        k(  601) = (   0.0417454   0.5061365   0.1111908), wk =   0.0004340
        k(  602) = (   0.0417454   0.5061365   0.1297227), wk =   0.0004340
        k(  603) = (   0.0417454   0.5061365  -0.1482545), wk =   0.0002170
        k(  604) = (   0.0417454   0.5302382   0.0000000), wk =   0.0002170
        k(  605) = (   0.0417454   0.5302382   0.0185318), wk =   0.0004340
        k(  606) = (   0.0417454   0.5302382   0.0370636), wk =   0.0004340
        k(  607) = (   0.0417454   0.5302382   0.0555954), wk =   0.0004340
        k(  608) = (   0.0417454   0.5302382   0.0741272), wk =   0.0004340
        k(  609) = (   0.0417454   0.5302382   0.0926590), wk =   0.0004340
        k(  610) = (   0.0417454   0.5302382   0.1111908), wk =   0.0004340
        k(  611) = (   0.0417454   0.5302382   0.1297227), wk =   0.0004340
        k(  612) = (   0.0417454   0.5302382  -0.1482545), wk =   0.0002170
        k(  613) = (   0.0417454   0.5543399   0.0000000), wk =   0.0002170
        k(  614) = (   0.0417454   0.5543399   0.0185318), wk =   0.0004340
        k(  615) = (   0.0417454   0.5543399   0.0370636), wk =   0.0004340
        k(  616) = (   0.0417454   0.5543399   0.0555954), wk =   0.0004340
        k(  617) = (   0.0417454   0.5543399   0.0741272), wk =   0.0004340
        k(  618) = (   0.0417454   0.5543399   0.0926590), wk =   0.0004340
        k(  619) = (   0.0417454   0.5543399   0.1111908), wk =   0.0004340
        k(  620) = (   0.0417454   0.5543399   0.1297227), wk =   0.0004340
        k(  621) = (   0.0417454   0.5543399  -0.1482545), wk =   0.0002170
        k(  622) = (   0.0417454   0.5784417   0.0000000), wk =   0.0001085
        k(  623) = (   0.0417454   0.5784417   0.0185318), wk =   0.0002170
        k(  624) = (   0.0417454   0.5784417   0.0370636), wk =   0.0002170
        k(  625) = (   0.0417454   0.5784417   0.0555954), wk =   0.0002170
        k(  626) = (   0.0417454   0.5784417   0.0741272), wk =   0.0002170
        k(  627) = (   0.0417454   0.5784417   0.0926590), wk =   0.0002170
        k(  628) = (   0.0417454   0.5784417   0.1111908), wk =   0.0002170
        k(  629) = (   0.0417454   0.5784417   0.1297227), wk =   0.0002170
        k(  630) = (   0.0417454   0.5784417  -0.1482545), wk =   0.0001085
        k(  631) = (   0.0626181   0.1084578   0.0000000), wk =   0.0002170
        k(  632) = (   0.0626181   0.1084578   0.0185318), wk =   0.0004340
        k(  633) = (   0.0626181   0.1084578   0.0370636), wk =   0.0004340
        k(  634) = (   0.0626181   0.1084578   0.0555954), wk =   0.0004340
        k(  635) = (   0.0626181   0.1084578   0.0741272), wk =   0.0004340
        k(  636) = (   0.0626181   0.1084578   0.0926590), wk =   0.0004340
        k(  637) = (   0.0626181   0.1084578   0.1111908), wk =   0.0004340
        k(  638) = (   0.0626181   0.1084578   0.1297227), wk =   0.0004340
        k(  639) = (   0.0626181   0.1084578  -0.1482545), wk =   0.0002170
        k(  640) = (   0.0626181   0.1325596   0.0000000), wk =   0.0002170
        k(  641) = (   0.0626181   0.1325596   0.0185318), wk =   0.0004340
        k(  642) = (   0.0626181   0.1325596   0.0370636), wk =   0.0004340
        k(  643) = (   0.0626181   0.1325596   0.0555954), wk =   0.0004340
        k(  644) = (   0.0626181   0.1325596   0.0741272), wk =   0.0004340
        k(  645) = (   0.0626181   0.1325596   0.0926590), wk =   0.0004340
        k(  646) = (   0.0626181   0.1325596   0.1111908), wk =   0.0004340
        k(  647) = (   0.0626181   0.1325596   0.1297227), wk =   0.0004340
        k(  648) = (   0.0626181   0.1325596  -0.1482545), wk =   0.0002170
        k(  649) = (   0.0626181   0.1566613   0.0000000), wk =   0.0002170
        k(  650) = (   0.0626181   0.1566613   0.0185318), wk =   0.0004340
        k(  651) = (   0.0626181   0.1566613   0.0370636), wk =   0.0004340
        k(  652) = (   0.0626181   0.1566613   0.0555954), wk =   0.0004340
        k(  653) = (   0.0626181   0.1566613   0.0741272), wk =   0.0004340
        k(  654) = (   0.0626181   0.1566613   0.0926590), wk =   0.0004340
        k(  655) = (   0.0626181   0.1566613   0.1111908), wk =   0.0004340
        k(  656) = (   0.0626181   0.1566613   0.1297227), wk =   0.0004340
        k(  657) = (   0.0626181   0.1566613  -0.1482545), wk =   0.0002170
        k(  658) = (   0.0626181   0.1807630   0.0000000), wk =   0.0002170
        k(  659) = (   0.0626181   0.1807630   0.0185318), wk =   0.0004340
        k(  660) = (   0.0626181   0.1807630   0.0370636), wk =   0.0004340
        k(  661) = (   0.0626181   0.1807630   0.0555954), wk =   0.0004340
        k(  662) = (   0.0626181   0.1807630   0.0741272), wk =   0.0004340
        k(  663) = (   0.0626181   0.1807630   0.0926590), wk =   0.0004340
        k(  664) = (   0.0626181   0.1807630   0.1111908), wk =   0.0004340
        k(  665) = (   0.0626181   0.1807630   0.1297227), wk =   0.0004340
        k(  666) = (   0.0626181   0.1807630  -0.1482545), wk =   0.0002170
        k(  667) = (   0.0626181   0.2048648   0.0000000), wk =   0.0002170
        k(  668) = (   0.0626181   0.2048648   0.0185318), wk =   0.0004340
        k(  669) = (   0.0626181   0.2048648   0.0370636), wk =   0.0004340
        k(  670) = (   0.0626181   0.2048648   0.0555954), wk =   0.0004340
        k(  671) = (   0.0626181   0.2048648   0.0741272), wk =   0.0004340
        k(  672) = (   0.0626181   0.2048648   0.0926590), wk =   0.0004340
        k(  673) = (   0.0626181   0.2048648   0.1111908), wk =   0.0004340
        k(  674) = (   0.0626181   0.2048648   0.1297227), wk =   0.0004340
        k(  675) = (   0.0626181   0.2048648  -0.1482545), wk =   0.0002170
        k(  676) = (   0.0626181   0.2289665   0.0000000), wk =   0.0002170
        k(  677) = (   0.0626181   0.2289665   0.0185318), wk =   0.0004340
        k(  678) = (   0.0626181   0.2289665   0.0370636), wk =   0.0004340
        k(  679) = (   0.0626181   0.2289665   0.0555954), wk =   0.0004340
        k(  680) = (   0.0626181   0.2289665   0.0741272), wk =   0.0004340
        k(  681) = (   0.0626181   0.2289665   0.0926590), wk =   0.0004340
        k(  682) = (   0.0626181   0.2289665   0.1111908), wk =   0.0004340
        k(  683) = (   0.0626181   0.2289665   0.1297227), wk =   0.0004340
        k(  684) = (   0.0626181   0.2289665  -0.1482545), wk =   0.0002170
        k(  685) = (   0.0626181   0.2530682   0.0000000), wk =   0.0002170
        k(  686) = (   0.0626181   0.2530682   0.0185318), wk =   0.0004340
        k(  687) = (   0.0626181   0.2530682   0.0370636), wk =   0.0004340
        k(  688) = (   0.0626181   0.2530682   0.0555954), wk =   0.0004340
        k(  689) = (   0.0626181   0.2530682   0.0741272), wk =   0.0004340
        k(  690) = (   0.0626181   0.2530682   0.0926590), wk =   0.0004340
        k(  691) = (   0.0626181   0.2530682   0.1111908), wk =   0.0004340
        k(  692) = (   0.0626181   0.2530682   0.1297227), wk =   0.0004340
        k(  693) = (   0.0626181   0.2530682  -0.1482545), wk =   0.0002170
        k(  694) = (   0.0626181   0.2771700   0.0000000), wk =   0.0002170
        k(  695) = (   0.0626181   0.2771700   0.0185318), wk =   0.0004340
        k(  696) = (   0.0626181   0.2771700   0.0370636), wk =   0.0004340
        k(  697) = (   0.0626181   0.2771700   0.0555954), wk =   0.0004340
        k(  698) = (   0.0626181   0.2771700   0.0741272), wk =   0.0004340
        k(  699) = (   0.0626181   0.2771700   0.0926590), wk =   0.0004340
        k(  700) = (   0.0626181   0.2771700   0.1111908), wk =   0.0004340
        k(  701) = (   0.0626181   0.2771700   0.1297227), wk =   0.0004340
        k(  702) = (   0.0626181   0.2771700  -0.1482545), wk =   0.0002170
        k(  703) = (   0.0626181   0.3012717   0.0000000), wk =   0.0002170
        k(  704) = (   0.0626181   0.3012717   0.0185318), wk =   0.0004340
        k(  705) = (   0.0626181   0.3012717   0.0370636), wk =   0.0004340
        k(  706) = (   0.0626181   0.3012717   0.0555954), wk =   0.0004340
        k(  707) = (   0.0626181   0.3012717   0.0741272), wk =   0.0004340
        k(  708) = (   0.0626181   0.3012717   0.0926590), wk =   0.0004340
        k(  709) = (   0.0626181   0.3012717   0.1111908), wk =   0.0004340
        k(  710) = (   0.0626181   0.3012717   0.1297227), wk =   0.0004340
        k(  711) = (   0.0626181   0.3012717  -0.1482545), wk =   0.0002170
        k(  712) = (   0.0626181   0.3253734   0.0000000), wk =   0.0002170
        k(  713) = (   0.0626181   0.3253734   0.0185318), wk =   0.0004340
        k(  714) = (   0.0626181   0.3253734   0.0370636), wk =   0.0004340
        k(  715) = (   0.0626181   0.3253734   0.0555954), wk =   0.0004340
        k(  716) = (   0.0626181   0.3253734   0.0741272), wk =   0.0004340
        k(  717) = (   0.0626181   0.3253734   0.0926590), wk =   0.0004340
        k(  718) = (   0.0626181   0.3253734   0.1111908), wk =   0.0004340
        k(  719) = (   0.0626181   0.3253734   0.1297227), wk =   0.0004340
        k(  720) = (   0.0626181   0.3253734  -0.1482545), wk =   0.0002170
        k(  721) = (   0.0626181   0.3494752   0.0000000), wk =   0.0002170
        k(  722) = (   0.0626181   0.3494752   0.0185318), wk =   0.0004340
        k(  723) = (   0.0626181   0.3494752   0.0370636), wk =   0.0004340
        k(  724) = (   0.0626181   0.3494752   0.0555954), wk =   0.0004340
        k(  725) = (   0.0626181   0.3494752   0.0741272), wk =   0.0004340
        k(  726) = (   0.0626181   0.3494752   0.0926590), wk =   0.0004340
        k(  727) = (   0.0626181   0.3494752   0.1111908), wk =   0.0004340
        k(  728) = (   0.0626181   0.3494752   0.1297227), wk =   0.0004340
        k(  729) = (   0.0626181   0.3494752  -0.1482545), wk =   0.0002170
        k(  730) = (   0.0626181   0.3735769   0.0000000), wk =   0.0002170
        k(  731) = (   0.0626181   0.3735769   0.0185318), wk =   0.0004340
        k(  732) = (   0.0626181   0.3735769   0.0370636), wk =   0.0004340
        k(  733) = (   0.0626181   0.3735769   0.0555954), wk =   0.0004340
        k(  734) = (   0.0626181   0.3735769   0.0741272), wk =   0.0004340
        k(  735) = (   0.0626181   0.3735769   0.0926590), wk =   0.0004340
        k(  736) = (   0.0626181   0.3735769   0.1111908), wk =   0.0004340
        k(  737) = (   0.0626181   0.3735769   0.1297227), wk =   0.0004340
        k(  738) = (   0.0626181   0.3735769  -0.1482545), wk =   0.0002170
        k(  739) = (   0.0626181   0.3976787   0.0000000), wk =   0.0002170
        k(  740) = (   0.0626181   0.3976787   0.0185318), wk =   0.0004340
        k(  741) = (   0.0626181   0.3976787   0.0370636), wk =   0.0004340
        k(  742) = (   0.0626181   0.3976787   0.0555954), wk =   0.0004340
        k(  743) = (   0.0626181   0.3976787   0.0741272), wk =   0.0004340
        k(  744) = (   0.0626181   0.3976787   0.0926590), wk =   0.0004340
        k(  745) = (   0.0626181   0.3976787   0.1111908), wk =   0.0004340
        k(  746) = (   0.0626181   0.3976787   0.1297227), wk =   0.0004340
        k(  747) = (   0.0626181   0.3976787  -0.1482545), wk =   0.0002170
        k(  748) = (   0.0626181   0.4217804   0.0000000), wk =   0.0002170
        k(  749) = (   0.0626181   0.4217804   0.0185318), wk =   0.0004340
        k(  750) = (   0.0626181   0.4217804   0.0370636), wk =   0.0004340
        k(  751) = (   0.0626181   0.4217804   0.0555954), wk =   0.0004340
        k(  752) = (   0.0626181   0.4217804   0.0741272), wk =   0.0004340
        k(  753) = (   0.0626181   0.4217804   0.0926590), wk =   0.0004340
        k(  754) = (   0.0626181   0.4217804   0.1111908), wk =   0.0004340
        k(  755) = (   0.0626181   0.4217804   0.1297227), wk =   0.0004340
        k(  756) = (   0.0626181   0.4217804  -0.1482545), wk =   0.0002170
        k(  757) = (   0.0626181   0.4458821   0.0000000), wk =   0.0002170
        k(  758) = (   0.0626181   0.4458821   0.0185318), wk =   0.0004340
        k(  759) = (   0.0626181   0.4458821   0.0370636), wk =   0.0004340
        k(  760) = (   0.0626181   0.4458821   0.0555954), wk =   0.0004340
        k(  761) = (   0.0626181   0.4458821   0.0741272), wk =   0.0004340
        k(  762) = (   0.0626181   0.4458821   0.0926590), wk =   0.0004340
        k(  763) = (   0.0626181   0.4458821   0.1111908), wk =   0.0004340
        k(  764) = (   0.0626181   0.4458821   0.1297227), wk =   0.0004340
        k(  765) = (   0.0626181   0.4458821  -0.1482545), wk =   0.0002170
        k(  766) = (   0.0626181   0.4699839   0.0000000), wk =   0.0002170
        k(  767) = (   0.0626181   0.4699839   0.0185318), wk =   0.0004340
        k(  768) = (   0.0626181   0.4699839   0.0370636), wk =   0.0004340
        k(  769) = (   0.0626181   0.4699839   0.0555954), wk =   0.0004340
        k(  770) = (   0.0626181   0.4699839   0.0741272), wk =   0.0004340
        k(  771) = (   0.0626181   0.4699839   0.0926590), wk =   0.0004340
        k(  772) = (   0.0626181   0.4699839   0.1111908), wk =   0.0004340
        k(  773) = (   0.0626181   0.4699839   0.1297227), wk =   0.0004340
        k(  774) = (   0.0626181   0.4699839  -0.1482545), wk =   0.0002170
        k(  775) = (   0.0626181   0.4940856   0.0000000), wk =   0.0002170
        k(  776) = (   0.0626181   0.4940856   0.0185318), wk =   0.0004340
        k(  777) = (   0.0626181   0.4940856   0.0370636), wk =   0.0004340
        k(  778) = (   0.0626181   0.4940856   0.0555954), wk =   0.0004340
        k(  779) = (   0.0626181   0.4940856   0.0741272), wk =   0.0004340
        k(  780) = (   0.0626181   0.4940856   0.0926590), wk =   0.0004340
        k(  781) = (   0.0626181   0.4940856   0.1111908), wk =   0.0004340
        k(  782) = (   0.0626181   0.4940856   0.1297227), wk =   0.0004340
        k(  783) = (   0.0626181   0.4940856  -0.1482545), wk =   0.0002170
        k(  784) = (   0.0626181   0.5181873   0.0000000), wk =   0.0002170
        k(  785) = (   0.0626181   0.5181873   0.0185318), wk =   0.0004340
        k(  786) = (   0.0626181   0.5181873   0.0370636), wk =   0.0004340
        k(  787) = (   0.0626181   0.5181873   0.0555954), wk =   0.0004340
        k(  788) = (   0.0626181   0.5181873   0.0741272), wk =   0.0004340
        k(  789) = (   0.0626181   0.5181873   0.0926590), wk =   0.0004340
        k(  790) = (   0.0626181   0.5181873   0.1111908), wk =   0.0004340
        k(  791) = (   0.0626181   0.5181873   0.1297227), wk =   0.0004340
        k(  792) = (   0.0626181   0.5181873  -0.1482545), wk =   0.0002170
        k(  793) = (   0.0626181   0.5422891   0.0000000), wk =   0.0002170
        k(  794) = (   0.0626181   0.5422891   0.0185318), wk =   0.0004340
        k(  795) = (   0.0626181   0.5422891   0.0370636), wk =   0.0004340
        k(  796) = (   0.0626181   0.5422891   0.0555954), wk =   0.0004340
        k(  797) = (   0.0626181   0.5422891   0.0741272), wk =   0.0004340
        k(  798) = (   0.0626181   0.5422891   0.0926590), wk =   0.0004340
        k(  799) = (   0.0626181   0.5422891   0.1111908), wk =   0.0004340
        k(  800) = (   0.0626181   0.5422891   0.1297227), wk =   0.0004340
        k(  801) = (   0.0626181   0.5422891  -0.1482545), wk =   0.0002170
        k(  802) = (   0.0626181   0.5663908   0.0000000), wk =   0.0002170
        k(  803) = (   0.0626181   0.5663908   0.0185318), wk =   0.0004340
        k(  804) = (   0.0626181   0.5663908   0.0370636), wk =   0.0004340
        k(  805) = (   0.0626181   0.5663908   0.0555954), wk =   0.0004340
        k(  806) = (   0.0626181   0.5663908   0.0741272), wk =   0.0004340
        k(  807) = (   0.0626181   0.5663908   0.0926590), wk =   0.0004340
        k(  808) = (   0.0626181   0.5663908   0.1111908), wk =   0.0004340
        k(  809) = (   0.0626181   0.5663908   0.1297227), wk =   0.0004340
        k(  810) = (   0.0626181   0.5663908  -0.1482545), wk =   0.0002170
        k(  811) = (   0.0834909   0.1446104   0.0000000), wk =   0.0002170
        k(  812) = (   0.0834909   0.1446104   0.0185318), wk =   0.0004340
        k(  813) = (   0.0834909   0.1446104   0.0370636), wk =   0.0004340
        k(  814) = (   0.0834909   0.1446104   0.0555954), wk =   0.0004340
        k(  815) = (   0.0834909   0.1446104   0.0741272), wk =   0.0004340
        k(  816) = (   0.0834909   0.1446104   0.0926590), wk =   0.0004340
        k(  817) = (   0.0834909   0.1446104   0.1111908), wk =   0.0004340
        k(  818) = (   0.0834909   0.1446104   0.1297227), wk =   0.0004340
        k(  819) = (   0.0834909   0.1446104  -0.1482545), wk =   0.0002170
        k(  820) = (   0.0834909   0.1687122   0.0000000), wk =   0.0002170
        k(  821) = (   0.0834909   0.1687122   0.0185318), wk =   0.0004340
        k(  822) = (   0.0834909   0.1687122   0.0370636), wk =   0.0004340
        k(  823) = (   0.0834909   0.1687122   0.0555954), wk =   0.0004340
        k(  824) = (   0.0834909   0.1687122   0.0741272), wk =   0.0004340
        k(  825) = (   0.0834909   0.1687122   0.0926590), wk =   0.0004340
        k(  826) = (   0.0834909   0.1687122   0.1111908), wk =   0.0004340
        k(  827) = (   0.0834909   0.1687122   0.1297227), wk =   0.0004340
        k(  828) = (   0.0834909   0.1687122  -0.1482545), wk =   0.0002170
        k(  829) = (   0.0834909   0.1928139   0.0000000), wk =   0.0002170
        k(  830) = (   0.0834909   0.1928139   0.0185318), wk =   0.0004340
        k(  831) = (   0.0834909   0.1928139   0.0370636), wk =   0.0004340
        k(  832) = (   0.0834909   0.1928139   0.0555954), wk =   0.0004340
        k(  833) = (   0.0834909   0.1928139   0.0741272), wk =   0.0004340
        k(  834) = (   0.0834909   0.1928139   0.0926590), wk =   0.0004340
        k(  835) = (   0.0834909   0.1928139   0.1111908), wk =   0.0004340
        k(  836) = (   0.0834909   0.1928139   0.1297227), wk =   0.0004340
        k(  837) = (   0.0834909   0.1928139  -0.1482545), wk =   0.0002170
        k(  838) = (   0.0834909   0.2169156   0.0000000), wk =   0.0002170
        k(  839) = (   0.0834909   0.2169156   0.0185318), wk =   0.0004340
        k(  840) = (   0.0834909   0.2169156   0.0370636), wk =   0.0004340
        k(  841) = (   0.0834909   0.2169156   0.0555954), wk =   0.0004340
        k(  842) = (   0.0834909   0.2169156   0.0741272), wk =   0.0004340
        k(  843) = (   0.0834909   0.2169156   0.0926590), wk =   0.0004340
        k(  844) = (   0.0834909   0.2169156   0.1111908), wk =   0.0004340
        k(  845) = (   0.0834909   0.2169156   0.1297227), wk =   0.0004340
        k(  846) = (   0.0834909   0.2169156  -0.1482545), wk =   0.0002170
        k(  847) = (   0.0834909   0.2410174   0.0000000), wk =   0.0002170
        k(  848) = (   0.0834909   0.2410174   0.0185318), wk =   0.0004340
        k(  849) = (   0.0834909   0.2410174   0.0370636), wk =   0.0004340
        k(  850) = (   0.0834909   0.2410174   0.0555954), wk =   0.0004340
        k(  851) = (   0.0834909   0.2410174   0.0741272), wk =   0.0004340
        k(  852) = (   0.0834909   0.2410174   0.0926590), wk =   0.0004340
        k(  853) = (   0.0834909   0.2410174   0.1111908), wk =   0.0004340
        k(  854) = (   0.0834909   0.2410174   0.1297227), wk =   0.0004340
        k(  855) = (   0.0834909   0.2410174  -0.1482545), wk =   0.0002170
        k(  856) = (   0.0834909   0.2651191   0.0000000), wk =   0.0002170
        k(  857) = (   0.0834909   0.2651191   0.0185318), wk =   0.0004340
        k(  858) = (   0.0834909   0.2651191   0.0370636), wk =   0.0004340
        k(  859) = (   0.0834909   0.2651191   0.0555954), wk =   0.0004340
        k(  860) = (   0.0834909   0.2651191   0.0741272), wk =   0.0004340
        k(  861) = (   0.0834909   0.2651191   0.0926590), wk =   0.0004340
        k(  862) = (   0.0834909   0.2651191   0.1111908), wk =   0.0004340
        k(  863) = (   0.0834909   0.2651191   0.1297227), wk =   0.0004340
        k(  864) = (   0.0834909   0.2651191  -0.1482545), wk =   0.0002170
        k(  865) = (   0.0834909   0.2892208   0.0000000), wk =   0.0002170
        k(  866) = (   0.0834909   0.2892208   0.0185318), wk =   0.0004340
        k(  867) = (   0.0834909   0.2892208   0.0370636), wk =   0.0004340
        k(  868) = (   0.0834909   0.2892208   0.0555954), wk =   0.0004340
        k(  869) = (   0.0834909   0.2892208   0.0741272), wk =   0.0004340
        k(  870) = (   0.0834909   0.2892208   0.0926590), wk =   0.0004340
        k(  871) = (   0.0834909   0.2892208   0.1111908), wk =   0.0004340
        k(  872) = (   0.0834909   0.2892208   0.1297227), wk =   0.0004340
        k(  873) = (   0.0834909   0.2892208  -0.1482545), wk =   0.0002170
        k(  874) = (   0.0834909   0.3133226   0.0000000), wk =   0.0002170
        k(  875) = (   0.0834909   0.3133226   0.0185318), wk =   0.0004340
        k(  876) = (   0.0834909   0.3133226   0.0370636), wk =   0.0004340
        k(  877) = (   0.0834909   0.3133226   0.0555954), wk =   0.0004340
        k(  878) = (   0.0834909   0.3133226   0.0741272), wk =   0.0004340
        k(  879) = (   0.0834909   0.3133226   0.0926590), wk =   0.0004340
        k(  880) = (   0.0834909   0.3133226   0.1111908), wk =   0.0004340
        k(  881) = (   0.0834909   0.3133226   0.1297227), wk =   0.0004340
        k(  882) = (   0.0834909   0.3133226  -0.1482545), wk =   0.0002170
        k(  883) = (   0.0834909   0.3374243   0.0000000), wk =   0.0002170
        k(  884) = (   0.0834909   0.3374243   0.0185318), wk =   0.0004340
        k(  885) = (   0.0834909   0.3374243   0.0370636), wk =   0.0004340
        k(  886) = (   0.0834909   0.3374243   0.0555954), wk =   0.0004340
        k(  887) = (   0.0834909   0.3374243   0.0741272), wk =   0.0004340
        k(  888) = (   0.0834909   0.3374243   0.0926590), wk =   0.0004340
        k(  889) = (   0.0834909   0.3374243   0.1111908), wk =   0.0004340
        k(  890) = (   0.0834909   0.3374243   0.1297227), wk =   0.0004340
        k(  891) = (   0.0834909   0.3374243  -0.1482545), wk =   0.0002170
        k(  892) = (   0.0834909   0.3615261   0.0000000), wk =   0.0002170
        k(  893) = (   0.0834909   0.3615261   0.0185318), wk =   0.0004340
        k(  894) = (   0.0834909   0.3615261   0.0370636), wk =   0.0004340
        k(  895) = (   0.0834909   0.3615261   0.0555954), wk =   0.0004340
        k(  896) = (   0.0834909   0.3615261   0.0741272), wk =   0.0004340
        k(  897) = (   0.0834909   0.3615261   0.0926590), wk =   0.0004340
        k(  898) = (   0.0834909   0.3615261   0.1111908), wk =   0.0004340
        k(  899) = (   0.0834909   0.3615261   0.1297227), wk =   0.0004340
        k(  900) = (   0.0834909   0.3615261  -0.1482545), wk =   0.0002170
        k(  901) = (   0.0834909   0.3856278   0.0000000), wk =   0.0002170
        k(  902) = (   0.0834909   0.3856278   0.0185318), wk =   0.0004340
        k(  903) = (   0.0834909   0.3856278   0.0370636), wk =   0.0004340
        k(  904) = (   0.0834909   0.3856278   0.0555954), wk =   0.0004340
        k(  905) = (   0.0834909   0.3856278   0.0741272), wk =   0.0004340
        k(  906) = (   0.0834909   0.3856278   0.0926590), wk =   0.0004340
        k(  907) = (   0.0834909   0.3856278   0.1111908), wk =   0.0004340
        k(  908) = (   0.0834909   0.3856278   0.1297227), wk =   0.0004340
        k(  909) = (   0.0834909   0.3856278  -0.1482545), wk =   0.0002170
        k(  910) = (   0.0834909   0.4097295   0.0000000), wk =   0.0002170
        k(  911) = (   0.0834909   0.4097295   0.0185318), wk =   0.0004340
        k(  912) = (   0.0834909   0.4097295   0.0370636), wk =   0.0004340
        k(  913) = (   0.0834909   0.4097295   0.0555954), wk =   0.0004340
        k(  914) = (   0.0834909   0.4097295   0.0741272), wk =   0.0004340
        k(  915) = (   0.0834909   0.4097295   0.0926590), wk =   0.0004340
        k(  916) = (   0.0834909   0.4097295   0.1111908), wk =   0.0004340
        k(  917) = (   0.0834909   0.4097295   0.1297227), wk =   0.0004340
        k(  918) = (   0.0834909   0.4097295  -0.1482545), wk =   0.0002170
        k(  919) = (   0.0834909   0.4338313   0.0000000), wk =   0.0002170
        k(  920) = (   0.0834909   0.4338313   0.0185318), wk =   0.0004340
        k(  921) = (   0.0834909   0.4338313   0.0370636), wk =   0.0004340
        k(  922) = (   0.0834909   0.4338313   0.0555954), wk =   0.0004340
        k(  923) = (   0.0834909   0.4338313   0.0741272), wk =   0.0004340
        k(  924) = (   0.0834909   0.4338313   0.0926590), wk =   0.0004340
        k(  925) = (   0.0834909   0.4338313   0.1111908), wk =   0.0004340
        k(  926) = (   0.0834909   0.4338313   0.1297227), wk =   0.0004340
        k(  927) = (   0.0834909   0.4338313  -0.1482545), wk =   0.0002170
        k(  928) = (   0.0834909   0.4579330   0.0000000), wk =   0.0002170
        k(  929) = (   0.0834909   0.4579330   0.0185318), wk =   0.0004340
        k(  930) = (   0.0834909   0.4579330   0.0370636), wk =   0.0004340
        k(  931) = (   0.0834909   0.4579330   0.0555954), wk =   0.0004340
        k(  932) = (   0.0834909   0.4579330   0.0741272), wk =   0.0004340
        k(  933) = (   0.0834909   0.4579330   0.0926590), wk =   0.0004340
        k(  934) = (   0.0834909   0.4579330   0.1111908), wk =   0.0004340
        k(  935) = (   0.0834909   0.4579330   0.1297227), wk =   0.0004340
        k(  936) = (   0.0834909   0.4579330  -0.1482545), wk =   0.0002170
        k(  937) = (   0.0834909   0.4820347   0.0000000), wk =   0.0002170
        k(  938) = (   0.0834909   0.4820347   0.0185318), wk =   0.0004340
        k(  939) = (   0.0834909   0.4820347   0.0370636), wk =   0.0004340
        k(  940) = (   0.0834909   0.4820347   0.0555954), wk =   0.0004340
        k(  941) = (   0.0834909   0.4820347   0.0741272), wk =   0.0004340
        k(  942) = (   0.0834909   0.4820347   0.0926590), wk =   0.0004340
        k(  943) = (   0.0834909   0.4820347   0.1111908), wk =   0.0004340
        k(  944) = (   0.0834909   0.4820347   0.1297227), wk =   0.0004340
        k(  945) = (   0.0834909   0.4820347  -0.1482545), wk =   0.0002170
        k(  946) = (   0.0834909   0.5061365   0.0000000), wk =   0.0002170
        k(  947) = (   0.0834909   0.5061365   0.0185318), wk =   0.0004340
[...]
     5.3369   5.4170  15.5372  15.6893

     occupation numbers 
     1.0000   1.0000   1.0000   1.0000   1.0000   1.0000   1.0230   0.9761
     0.0465   0.0100  -0.0000  -0.0000

          k =-0.3548-0.5423-0.0371 (  1524 PWs)   bands (ev):

    -8.1680  -8.1563  -7.5474  -7.5470  -5.5252  -5.5172   4.2108   4.3589
     5.3382   5.4135  15.5032  15.6303

     occupation numbers 
     1.0000   1.0000   1.0000   1.0000   1.0000   1.0000   1.0221   0.9777
     0.0458   0.0113  -0.0000  -0.0000

          k =-0.3548-0.5423-0.0556 (  1524 PWs)   bands (ev):

    -8.1673  -8.1569  -7.5474  -7.5471  -5.5248  -5.5176   4.2192   4.3527
     5.3405   5.4080  15.4564  15.5541

     occupation numbers 
     1.0000   1.0000   1.0000   1.0000   1.0000   1.0000   1.0206   0.9804
     0.0446   0.0134  -0.0000  -0.0000

          k =-0.3548-0.5423-0.0741 (  1527 PWs)   bands (ev):

    -8.1666  -8.1576  -7.5474  -7.5471  -5.5243  -5.5182   4.2305   4.3442
     5.3438   5.4010  15.4062  15.4767

     occupation numbers 
     1.0000   1.0000   1.0000   1.0000   1.0000   1.0000   1.0183   0.9839
     0.0428   0.0162  -0.0000  -0.0000

          k =-0.3548-0.5423-0.0927 (  1533 PWs)   bands (ev):

    -8.1656  -8.1586  -7.5474  -7.5472  -5.5236  -5.5188   4.2439   4.3335
     5.3482   5.3929  15.3608  15.4085

     occupation numbers 
     1.0000   1.0000   1.0000   1.0000   1.0000   1.0000   1.0154   0.9882
     0.0406   0.0196  -0.0000  -0.0000

          k =-0.3548-0.5423-0.1112 (  1544 PWs)   bands (ev):

    -8.1645  -8.1597  -7.5474  -7.5473  -5.5229  -5.5196   4.2589   4.3207
     5.3535   5.3842  15.3261  15.3552

     occupation numbers 
     1.0000   1.0000   1.0000   1.0000   1.0000   1.0000   1.0118   0.9929
     0.0378   0.0233  -0.0000  -0.0000

          k =-0.3548-0.5423-0.1297 (  1542 PWs)   bands (ev):

    -8.1633  -8.1609  -7.5474  -7.5473  -5.5221  -5.5204   4.2748   4.3064
     5.3600   5.3756  15.3061  15.3198

     occupation numbers 
     1.0000   1.0000   1.0000   1.0000   1.0000   1.0000   1.0076   0.9979
     0.0346   0.0272  -0.0000  -0.0000

          k =-0.3548-0.5423 0.1483 (  1546 PWs)   bands (ev):

    -8.1621  -8.1621  -7.5474  -7.5474  -5.5213  -5.5213   4.2909   4.2909
     5.3674   5.3674  15.3035  15.3035

     occupation numbers 
     1.0000   1.0000   1.0000   1.0000   1.0000   1.0000   1.0029   1.0029
     0.0310   0.0310  -0.0000  -0.0000

          k = 0.6262 0.0000 0.0000 (  1525 PWs)   bands (ev):

    -8.3321  -8.3118  -7.3350  -7.3237  -5.5791  -5.5737   4.1008   4.3288
     5.3772   5.5311  15.5117  15.7310

     occupation numbers 
     1.0000   1.0000   1.0000   1.0000   1.0000   1.0000   1.0341   0.9900
     0.0265  -0.0214  -0.0000  -0.0000

          k = 0.6262 0.0000-0.0185 (  1527 PWs)   bands (ev):

    -8.3319  -8.3120  -7.3349  -7.3238  -5.5791  -5.5737   4.1030   4.3267
     5.3786   5.5294  15.5009  15.7006

     occupation numbers 
     1.0000   1.0000   1.0000   1.0000   1.0000   1.0000   1.0339   0.9908
     0.0259  -0.0211  -0.0000  -0.0000

          k = 0.6262 0.0000-0.0371 (  1525 PWs)   bands (ev):

    -8.3314  -8.3126  -7.3345  -7.3241  -5.5789  -5.5739   4.1096   4.3203
     5.3826   5.5246  15.4709  15.6273

     occupation numbers 
     1.0000   1.0000   1.0000   1.0000   1.0000   1.0000   1.0336   0.9931
     0.0241  -0.0202  -0.0000  -0.0000

          k = 0.6262 0.0000-0.0556 (  1519 PWs)   bands (ev):

    -8.3304  -8.3135  -7.3340  -7.3246  -5.5787  -5.5742   4.1203   4.3100
     5.3891   5.5168  15.4287  15.5398

     occupation numbers 
     1.0000   1.0000   1.0000   1.0000   1.0000   1.0000   1.0329   0.9967
     0.0212  -0.0187  -0.0000  -0.0000

          k = 0.6262 0.0000-0.0741 (  1525 PWs)   bands (ev):

    -8.3292  -8.3148  -7.3333  -7.3253  -5.5783  -5.5745   4.1347   4.2961
     5.3980   5.5065  15.3822  15.4563

     occupation numbers 
     1.0000   1.0000   1.0000   1.0000   1.0000   1.0000   1.0319   1.0013
     0.0175  -0.0165  -0.0000  -0.0000

          k = 0.6262 0.0000-0.0927 (  1534 PWs)   bands (ev):

    -8.3276  -8.3163  -7.3324  -7.3262  -5.5780  -5.5749   4.1522   4.2791
     5.4089   5.4941  15.3390  15.3856

     occupation numbers 
     1.0000   1.0000   1.0000   1.0000   1.0000   1.0000   1.0302   1.0064
     0.0131  -0.0136  -0.0000  -0.0000

          k = 0.6262 0.0000-0.1112 (  1540 PWs)   bands (ev):

    -8.3259  -8.3181  -7.3315  -7.3272  -5.5775  -5.5754   4.1721   4.2595
     5.4215   5.4801  15.3052  15.3319

     occupation numbers 
     1.0000   1.0000   1.0000   1.0000   1.0000   1.0000   1.0280   1.0117
     0.0083  -0.0101  -0.0000  -0.0000

          k = 0.6262 0.0000-0.1297 (  1544 PWs)   bands (ev):

    -8.3240  -8.3200  -7.3305  -7.3283  -5.5770  -5.5759   4.1936   4.2382
     5.4355   5.4653  15.2851  15.2972

     occupation numbers 
     1.0000   1.0000   1.0000   1.0000   1.0000   1.0000   1.0250   1.0167
     0.0033  -0.0061  -0.0000  -0.0000

          k = 0.6262 0.0000 0.1483 (  1546 PWs)   bands (ev):

    -8.3220  -8.3220  -7.3294  -7.3294  -5.5765  -5.5765   4.2160   4.2160
     5.4503   5.4503  15.2818  15.2818

     occupation numbers 
     1.0000   1.0000   1.0000   1.0000   1.0000   1.0000   1.0212   1.0212
    -0.0015  -0.0015  -0.0000  -0.0000

          k =-0.3340-0.5543 0.0000 (  1525 PWs)   bands (ev):

    -8.0426  -8.0269  -7.5607  -7.5508  -5.6815  -5.6770   4.4023   4.5829
     5.1108   5.2498  15.5174  15.6250

     occupation numbers 
     1.0000   1.0000   1.0000   1.0000   1.0000   1.0000   0.9569   0.8269
     0.2230   0.1016  -0.0000  -0.0000

          k = 0.6471-0.0121 0.0000 (  1525 PWs)   bands (ev):

    -8.0425  -8.0267  -7.5610  -7.5511  -5.6814  -5.6769   4.4025   4.5832
     5.1106   5.2494  15.5174  15.6251

     occupation numbers 
     1.0000   1.0000   1.0000   1.0000   1.0000   1.0000   0.9568   0.8266
     0.2233   0.1019  -0.0000  -0.0000

          k =-0.3340-0.5543-0.0185 (  1523 PWs)   bands (ev):

    -8.0425  -8.0270  -7.5606  -7.5509  -5.6815  -5.6770   4.4043   4.5815
     5.1118   5.2481  15.5050  15.6058

     occupation numbers 
     1.0000   1.0000   1.0000   1.0000   1.0000   1.0000   0.9559   0.8282
     0.2220   0.1029  -0.0000  -0.0000

          k = 0.6471-0.0121-0.0185 (  1523 PWs)   bands (ev):

    -8.0423  -8.0269  -7.5609  -7.5512  -5.6814  -5.6769   4.4045   4.5818
     5.1116   5.2477  15.5050  15.6059

     occupation numbers 
     1.0000   1.0000   1.0000   1.0000   1.0000   1.0000   0.9557   0.8279
     0.2223   0.1031  -0.0000  -0.0000

          k =-0.3340-0.5543-0.0371 (  1525 PWs)   bands (ev):

    -8.0420  -8.0275  -7.5604  -7.5512  -5.6814  -5.6772   4.4101   4.5773
     5.1148   5.2429  15.4712  15.5552

     occupation numbers 
     1.0000   1.0000   1.0000   1.0000   1.0000   1.0000   0.9527   0.8320
     0.2191   0.1066  -0.0000  -0.0000

          k = 0.6471-0.0121-0.0371 (  1525 PWs)   bands (ev):

    -8.0419  -8.0273  -7.5606  -7.5515  -5.6813  -5.6771   4.4104   4.5776
     5.1145   5.2426  15.4712  15.5553

     occupation numbers 
     1.0000   1.0000   1.0000   1.0000   1.0000   1.0000   0.9526   0.8317
     0.2193   0.1069  -0.0000  -0.0000

          k =-0.3340-0.5543-0.0556 (  1523 PWs)   bands (ev):

    -8.0413  -8.0282  -7.5599  -7.5517  -5.6812  -5.6774   4.4196   4.5703
     5.1196   5.2348  15.4241  15.4881

     occupation numbers 
     1.0000   1.0000   1.0000   1.0000   1.0000   1.0000   0.9475   0.8382
     0.2142   0.1128  -0.0000  -0.0000

          k = 0.6471-0.0121-0.0556 (  1523 PWs)   bands (ev):

    -8.0411  -8.0280  -7.5602  -7.5519  -5.6811  -5.6773   4.4199   4.5706
     5.1194   5.2344  15.4241  15.4882

     occupation numbers 
     1.0000   1.0000   1.0000   1.0000   1.0000   1.0000   0.9473   0.8379
     0.2144   0.1131  -0.0000  -0.0000

          k =-0.3340-0.5543-0.0741 (  1523 PWs)   bands (ev):

    -8.0403  -8.0292  -7.5593  -7.5523  -5.6809  -5.6777   4.4323   4.5607
     5.1264   5.2241  15.3730  15.4187

     occupation numbers 
     1.0000   1.0000   1.0000   1.0000   1.0000   1.0000   0.9402   0.8466
     0.2075   0.1210  -0.0000  -0.0000

          k = 0.6471-0.0121-0.0741 (  1523 PWs)   bands (ev):

    -8.0401  -8.0290  -7.5596  -7.5526  -5.6808  -5.6776   4.4326   4.5610
     5.1262   5.2237  15.3730  15.4187

     occupation numbers 
     1.0000   1.0000   1.0000   1.0000   1.0000   1.0000   0.9400   0.8464
     0.2077   0.1213  -0.0000  -0.0000

          k =-0.3340-0.5543-0.0927 (  1531 PWs)   bands (ev):

    -8.0391  -8.0304  -7.5586  -7.5531  -5.6806  -5.6781   4.4474   4.5485
     5.1350   5.2116  15.3262  15.3566

     occupation numbers 
     1.0000   1.0000   1.0000   1.0000   1.0000   1.0000   0.9310   0.8570
     0.1991   0.1310  -0.0000  -0.0000

          k = 0.6471-0.0121-0.0927 (  1531 PWs)   bands (ev):

    -8.0389  -8.0302  -7.5588  -7.5533  -5.6805  -5.6780   4.4477   4.5488
     5.1347   5.2112  15.3262  15.3567

     occupation numbers 
     1.0000   1.0000   1.0000   1.0000   1.0000   1.0000   0.9309   0.8568
     0.1994   0.1313  -0.0000  -0.0000

          k =-0.3340-0.5543-0.1112 (  1542 PWs)   bands (ev):

    -8.0378  -8.0317  -7.5578  -7.5540  -5.6802  -5.6785   4.4643   4.5341
     5.1453   5.1979  15.2896  15.3080

     occupation numbers 
     1.0000   1.0000   1.0000   1.0000   1.0000   1.0000   0.9202   0.8689
     0.1893   0.1422  -0.0000  -0.0000

          k = 0.6471-0.0121-0.1112 (  1542 PWs)   bands (ev):

    -8.0376  -8.0316  -7.5580  -7.5542  -5.6801  -5.6784   4.4646   4.5344
     5.1450   5.1976  15.2897  15.3081

     occupation numbers 
     1.0000   1.0000   1.0000   1.0000   1.0000   1.0000   0.9200   0.8687
     0.1895   0.1425  -0.0000  -0.0000

          k =-0.3340-0.5543-0.1297 (  1547 PWs)   bands (ev):

    -8.0363  -8.0332  -7.5569  -7.5549  -5.6798  -5.6789   4.4822   4.5179
     5.1571   5.1839  15.2676  15.2762

     occupation numbers 
     1.0000   1.0000   1.0000   1.0000   1.0000   1.0000   0.9080   0.8818
     0.1782   0.1542  -0.0000  -0.0000

          k = 0.6471-0.0121-0.1297 (  1547 PWs)   bands (ev):

    -8.0361  -8.0331  -7.5571  -7.5552  -5.6797  -5.6788   4.4825   4.5181
     5.1568   5.1836  15.2676  15.2763

     occupation numbers 
     1.0000   1.0000   1.0000   1.0000   1.0000   1.0000   0.9078   0.8816
     0.1785   0.1545  -0.0000  -0.0000

          k =-0.3340-0.5543 0.1483 (  1548 PWs)   bands (ev):

    -8.0348  -8.0348  -7.5559  -7.5559  -5.6794  -5.6794   4.5004   4.5004
     5.1701   5.1701  15.2627  15.2627

     occupation numbers 
     1.0000   1.0000   1.0000   1.0000   1.0000   1.0000   0.8950   0.8950
     0.1664   0.1664  -0.0000  -0.0000

          k = 0.6471-0.0121 0.1483 (  1548 PWs)   bands (ev):

    -8.0346  -8.0346  -7.5562  -7.5562  -5.6793  -5.6793   4.5006   4.5006
     5.1698   5.1698  15.2628  15.2628

     occupation numbers 
     1.0000   1.0000   1.0000   1.0000   1.0000   1.0000   0.8948   0.8948
     0.1667   0.1667  -0.0000  -0.0000

     the Fermi energy is     4.8728 ev

!    total energy              =     -49.71426157 Ry
     estimated scf accuracy    <          2.4E-10 Ry
     smearing contrib. (-TS)   =       0.00094857 Ry
     internal energy E=F+TS    =     -49.71521014 Ry

     The total energy is F=E-TS. E is the sum of the following terms:
     one-electron contribution =     -30.04879959 Ry
     hartree contribution      =      21.82752602 Ry
     xc contribution           =     -18.55488923 Ry
     ewald contribution        =     -22.93904734 Ry

     convergence has been achieved in   7 iterations

     Forces acting on atoms (cartesian axes, Ry/au):

     atom    1 type  1   force =     0.00000000    0.00011391    0.00000000
     atom    2 type  1   force =     0.00000000   -0.00011391    0.00000000
     atom    3 type  1   force =     0.00000000   -0.00011316    0.00000000
     atom    4 type  1   force =     0.00000000    0.00011316    0.00000000
     The non-local contrib.  to forces
     atom    1 type  1   force =     0.00000000    0.00010081    0.00000000
     atom    2 type  1   force =     0.00000000   -0.00010081    0.00000000
     atom    3 type  1   force =     0.00000000   -0.00010055    0.00000000
     atom    4 type  1   force =     0.00000000    0.00010055    0.00000000
     The ionic contribution  to forces
     atom    1 type  1   force =     0.00000000    0.00037531   -0.00000000
     atom    2 type  1   force =    -0.00000000   -0.00037531    0.00000000
     atom    3 type  1   force =    -0.00000000   -0.00037532    0.00000000
     atom    4 type  1   force =    -0.00000000    0.00037532    0.00000000
     The local contribution  to forces
     atom    1 type  1   force =     0.00000000   -0.00035949    0.00000000
     atom    2 type  1   force =     0.00000000    0.00035949   -0.00000000
     atom    3 type  1   force =    -0.00000000    0.00035917    0.00000000
     atom    4 type  1   force =     0.00000000   -0.00035917   -0.00000000
     The core correction contribution to forces
     atom    1 type  1   force =     0.00000000   -0.00000272    0.00000000
     atom    2 type  1   force =     0.00000000    0.00000272   -0.00000000
     atom    3 type  1   force =     0.00000000    0.00000349   -0.00000000
     atom    4 type  1   force =    -0.00000000   -0.00000349   -0.00000000
     The Hubbard contrib.    to forces
     atom    1 type  1   force =     0.00000000    0.00000000    0.00000000
     atom    2 type  1   force =     0.00000000    0.00000000    0.00000000
     atom    3 type  1   force =     0.00000000    0.00000000    0.00000000
     atom    4 type  1   force =     0.00000000    0.00000000    0.00000000
     The SCF correction term to forces
     atom    1 type  1   force =     0.00000000   -0.00000001    0.00000000
     atom    2 type  1   force =     0.00000000    0.00000001    0.00000000
     atom    3 type  1   force =    -0.00000000    0.00000004   -0.00000000
     atom    4 type  1   force =    -0.00000000   -0.00000004    0.00000000

     Total force =     0.000227     Total SCF correction =     0.000000


     Computing stress (Cartesian axis) and pressure

          total   stress  (Ry/bohr**3)                   (kbar)     P=       -0.29
  -0.00000307  -0.00000000   0.00000000           -0.45       -0.00        0.00
  -0.00000000  -0.00000368   0.00000000           -0.00       -0.54        0.00
   0.00000000   0.00000000   0.00000077            0.00        0.00        0.11

     kinetic stress (kbar)   9321.54     -0.00      0.00
                               -0.00   9321.80      0.00
                                0.00      0.00  10580.37

     local   stress (kbar) -26993.58     -0.00      0.00
                               -0.00 -26991.90     -0.00
                                0.00     -0.00  27339.13

     nonloc. stress (kbar)   1809.16     -0.00      0.00
                               -0.00   1809.10      0.00
                                0.00      0.00   1661.45

     hartree stress (kbar)  10023.79     -0.00      0.00
                               -0.00  10023.55      0.00
                                0.00      0.00  -9195.78

     exc-cor stress (kbar)   -167.73      0.00     -0.00
                                0.00   -167.74     -0.00
                               -0.00     -0.00   -273.09

     corecor stress (kbar)  -2245.20     -0.00      0.00
                               -0.00  -2245.19      0.00
                                0.00      0.00  -2206.39

     ewald   stress (kbar)   8251.58      0.00     -0.00
                                0.00   8249.84      0.00
                               -0.00      0.00 -27905.58

     hubbard stress (kbar)      0.00      0.00      0.00
                                0.00      0.00      0.00
                                0.00      0.00      0.00

     DFT-D   stress (kbar)      0.00      0.00      0.00
                                0.00      0.00      0.00
                                0.00      0.00      0.00

     XDM     stress (kbar)      0.00      0.00      0.00
                                0.00      0.00      0.00
                                0.00      0.00      0.00

     dft-nl  stress (kbar)      0.00      0.00      0.00
                                0.00      0.00      0.00
                                0.00      0.00      0.00

     TS-vdW  stress (kbar)      0.00      0.00      0.00
                                0.00      0.00      0.00
                                0.00      0.00      0.00



     Writing output data file ./tmp/C_k48.save/

     init_run     :    352.65s CPU    370.95s WALL (       1 calls)
     electrons    :   5255.97s CPU   5514.63s WALL (       1 calls)
     forces       :     63.46s CPU     65.93s WALL (       1 calls)
     stress       :    285.50s CPU    292.68s WALL (       1 calls)

     Called by init_run:
     wfcinit      :    347.17s CPU    365.21s WALL (       1 calls)
     wfcinit:atom :     10.58s CPU     11.14s WALL (    5409 calls)
     wfcinit:wfcr :    270.45s CPU    285.64s WALL (    5409 calls)
     potinit      :      0.47s CPU      0.53s WALL (       1 calls)
     hinit0       :      1.42s CPU      1.47s WALL (       1 calls)

     Called by electrons:
     c_bands      :   4529.11s CPU   4754.50s WALL (       7 calls)
     sum_band     :    722.64s CPU    754.12s WALL (       7 calls)
     v_of_rho     :      3.04s CPU      3.48s WALL (       8 calls)
     v_h          :      0.14s CPU      0.15s WALL (       8 calls)
     v_xc         :      3.54s CPU      3.99s WALL (      10 calls)
     newd         :      0.77s CPU      0.86s WALL (       8 calls)
     mix_rho      :      0.22s CPU      0.37s WALL (       7 calls)

     Called by c_bands:
     init_us_2    :    207.49s CPU    217.62s WALL (   91953 calls)
     cegterg      :   4246.68s CPU   4438.44s WALL (   37863 calls)

     Called by sum_band:
     sum_band:wei :      4.13s CPU      4.50s WALL (       7 calls)
     sum_band:loo :    716.99s CPU    747.07s WALL (       7 calls)
     sum_band:buf :      7.42s CPU      7.92s WALL (   37863 calls)
     sum_band:ini :     85.20s CPU     88.60s WALL (   37863 calls)
     sum_band:cal :     64.62s CPU     67.35s WALL (   37863 calls)
     sum_band:bec :      2.49s CPU      2.74s WALL (   37863 calls)
     addusdens    :      0.85s CPU      1.26s WALL (       7 calls)
     addusd:skk   :      0.02s CPU      0.06s WALL (       7 calls)
     addusd:dgemm :      0.21s CPU      0.29s WALL (       7 calls)
     addusd:qvan2 :      0.36s CPU      0.57s WALL (       7 calls)

     Called by *egterg:
     cdiaghg      :    161.16s CPU    169.63s WALL (  167210 calls)
     cegterg:over :    219.39s CPU    229.92s WALL (  129347 calls)
     cegterg:upda :    141.84s CPU    148.49s WALL (  129347 calls)
     cegterg:last :    227.14s CPU    235.94s WALL (   83279 calls)
     h_psi        :   3388.84s CPU   3548.84s WALL (  172619 calls)
     s_psi        :    197.76s CPU    207.45s WALL (  172619 calls)
     g_psi        :     35.87s CPU     37.92s WALL (  129347 calls)

     Called by h_psi:
     h_psi:calbec :    228.95s CPU    239.52s WALL (  172619 calls)
     vloc_psi     :   2897.68s CPU   3034.63s WALL (  172619 calls)
     add_vuspsi   :    221.51s CPU    232.39s WALL (  172619 calls)

     General routines
     calbec       :    330.31s CPU    346.59s WALL (  237527 calls)
     fft          :      1.92s CPU      2.10s WALL (     127 calls)
     ffts         :      0.04s CPU      0.16s WALL (      15 calls)
     fftw         :   2729.51s CPU   2863.24s WALL ( 3079636 calls)
     interpolate  :      0.14s CPU      0.14s WALL (       8 calls)

     Parallel routines

     PWSCF        :      1h39m CPU      1h44m WALL


   This run was terminated on:   7: 5:21  27May2022            

=------------------------------------------------------------------------------=
   JOB DONE.
=------------------------------------------------------------------------------=
