
     Program PWSCF v.6.7MaX starts on 27May2022 at  0:10:38 

     This program is part of the open-source Quantum ESPRESSO suite
     for quantum simulation of materials; please cite
         "P. Giannozzi et al., J. Phys.:Condens. Matter 21 395502 (2009);
         "P. Giannozzi et al., J. Phys.:Condens. Matter 29 465901 (2017);
          URL http://www.quantum-espresso.org", 
     in publications or presentations arising from this work. More details at
     http://www.quantum-espresso.org/quote

     Parallel version (MPI), running on     1 processors

     MPI processes distributed on     1 nodes
     Waiting for input...
     Reading input from standard input

     Current dimensions of program PWSCF are:
     Max number of different atomic species (ntypx) = 10
     Max number of k-points (npk) =  40000
     Max angular momentum in pseudopotentials (lmaxx) =  3

     Subspace diagonalization in iterative solution of the eigenvalue problem:
     a serial algorithm will be used

     Message from routine setup:
     using ibrav=0 with symmetry is DISCOURAGED, use correct ibrav instead

     G-vector sticks info
     --------------------
     sticks:   dense  smooth     PW     G-vecs:    dense   smooth      PW
     Sum         547     265     85                34133    11995    2223



     bravais-lattice index     =            0
     lattice parameter (alat)  =       4.6676  a.u.
     unit-cell volume          =     295.8966 (a.u.)^3
     number of atoms/cell      =            4
     number of atomic types    =            1
     number of electrons       =        16.00
     number of Kohn-Sham states=           12
     kinetic-energy cutoff     =      45.0000  Ry
     charge density cutoff     =     360.0000  Ry
     scf convergence threshold =      1.0E-09
     mixing beta               =       0.7000
     number of iterations used =            8  plain     mixing
     Exchange-correlation= PBE
                           (   1   4   3   4   0   0   0)

     celldm(1)=   4.667624  celldm(2)=   0.000000  celldm(3)=   0.000000
     celldm(4)=   0.000000  celldm(5)=   0.000000  celldm(6)=   0.000000

     crystal axes: (cart. coord. in units of alat)
               a(1) = (   0.998113   0.000000   0.000000 )  
               a(2) = (  -0.499057   0.864391   0.000000 )  
               a(3) = (   0.000000   0.000000   3.372580 )  

     reciprocal axes: (cart. coord. in units 2 pi/alat)
               b(1) = (  1.001890  0.578442 -0.000000 )  
               b(2) = (  0.000000  1.156883  0.000000 )  
               b(3) = (  0.000000 -0.000000  0.296509 )  


     PseudoPot. # 1 for C  read from file:
     /home/max/Desktop/graphite_DFT/Pseudo/C.pbe-n-rrkjus_psl.1.0.0.UPF
     MD5 check sum: 1fdd950c42eb37d8afe3dd2f8d12311e
     Pseudo is Ultrasoft + core correction, Zval =  4.0
     Generated using &quot;atomic&quot; code by A. Dal Corso  v.6.3MaX
     Using radial grid of 1073 points,  4 beta functions with: 
                l(1) =   0
                l(2) =   0
                l(3) =   1
                l(4) =   1
     Q(r) pseudized with 0 coefficients 


     atomic species   valence    mass     pseudopotential
        C              4.00    12.01100     C ( 1.00)

      8 Sym. Ops., with inversion, found ( 4 have fractional translation)


                                    s                        frac. trans.

      isym =  1     identity                                     

 cryst.   s( 1) = (     1          0          0      )
                  (     0          1          0      )
                  (     0          0          1      )

 cart.    s( 1) = (  1.0000000  0.0000000  0.0000000 )
                  (  0.0000000  1.0000000  0.0000000 )
                  (  0.0000000  0.0000000  1.0000000 )


      isym =  2     180 deg rotation - cart. axis [0,0,1]        

 cryst.   s( 2) = (    -1          0          0      )    f =(  0.0000000 )
                  (     0         -1          0      )       (  0.0000000 )
                  (     0          0          1      )       ( -0.5000000 )

 cart.    s( 2) = ( -1.0000000  0.0000000  0.0000000 )    f =(  0.0000000 )
                  (  0.0000000 -1.0000000  0.0000000 )       (  0.0000000 )
                  (  0.0000000  0.0000000  1.0000000 )       ( -1.6862899 )


      isym =  3     180 deg rotation - cart. axis [0,1,0]        

 cryst.   s( 3) = (    -1          0          0      )    f =(  0.0000000 )
                  (     1          1          0      )       (  0.0000000 )
                  (     0          0         -1      )       (  0.5000000 )

 cart.    s( 3) = ( -1.0000000  0.0000000  0.0000000 )    f =(  0.0000000 )
                  (  0.0000000  1.0000000  0.0000000 )       (  0.0000000 )
                  (  0.0000000  0.0000000 -1.0000000 )       (  1.6862899 )


      isym =  4     180 deg rotation - cart. axis [1,0,0]        

 cryst.   s( 4) = (     1          0          0      )
                  (    -1         -1          0      )
                  (     0          0         -1      )

 cart.    s( 4) = (  1.0000000  0.0000000  0.0000000 )
                  (  0.0000000 -1.0000000  0.0000000 )
                  (  0.0000000  0.0000000 -1.0000000 )


      isym =  5     inversion                                    

 cryst.   s( 5) = (    -1          0          0      )
                  (     0         -1          0      )
                  (     0          0         -1      )

 cart.    s( 5) = ( -1.0000000  0.0000000  0.0000000 )
                  (  0.0000000 -1.0000000  0.0000000 )
                  (  0.0000000  0.0000000 -1.0000000 )


      isym =  6     inv. 180 deg rotation - cart. axis [0,0,1]   

 cryst.   s( 6) = (     1          0          0      )    f =(  0.0000000 )
                  (     0          1          0      )       (  0.0000000 )
                  (     0          0         -1      )       (  0.5000000 )

 cart.    s( 6) = (  1.0000000  0.0000000  0.0000000 )    f =(  0.0000000 )
                  (  0.0000000  1.0000000  0.0000000 )       (  0.0000000 )
                  (  0.0000000  0.0000000 -1.0000000 )       (  1.6862899 )


      isym =  7     inv. 180 deg rotation - cart. axis [0,1,0]   

 cryst.   s( 7) = (     1          0          0      )    f =(  0.0000000 )
                  (    -1         -1          0      )       (  0.0000000 )
                  (     0          0          1      )       ( -0.5000000 )

 cart.    s( 7) = (  1.0000000  0.0000000  0.0000000 )    f =(  0.0000000 )
                  (  0.0000000 -1.0000000  0.0000000 )       (  0.0000000 )
                  (  0.0000000  0.0000000  1.0000000 )       ( -1.6862899 )


      isym =  8     inv. 180 deg rotation - cart. axis [1,0,0]   

 cryst.   s( 8) = (    -1          0          0      )
                  (     1          1          0      )
                  (     0          0          1      )

 cart.    s( 8) = ( -1.0000000  0.0000000  0.0000000 )
                  (  0.0000000  1.0000000  0.0000000 )
                  (  0.0000000  0.0000000  1.0000000 )


   Cartesian axes

     site n.     atom                  positions (alat units)
         1           C   tau(   1) = (   0.0000000  -0.0000396   0.8431450  )
         2           C   tau(   2) = (   0.0000000   0.0000396   2.5294349  )
         3           C   tau(   3) = (   0.0000000   0.5762433   0.8431450  )
         4           C   tau(   4) = (   0.4990566   0.2881481   2.5294349  )

   Crystallographic axes

     site n.     atom                  positions (cryst. coord.)
         1           C   tau(   1) = ( -0.0000229 -0.0000458  0.2500000  )
         2           C   tau(   2) = (  0.0000229  0.0000458  0.7500000  )
         3           C   tau(   3) = (  0.3333231  0.6666463  0.2500000  )
         4           C   tau(   4) = (  0.6666769  0.3333537  0.7500000  )

     number of k points=  2401  Methfessel-Paxton smearing, width (Ry)=  0.0500
                       cart. coord. in units 2pi/alat
        k(    1) = (   0.0000000   0.0000000   0.0000000), wk =   0.0001286
        k(    2) = (   0.0000000   0.0000000   0.0247091), wk =   0.0002572
        k(    3) = (   0.0000000   0.0000000   0.0494182), wk =   0.0002572
        k(    4) = (   0.0000000   0.0000000   0.0741272), wk =   0.0002572
        k(    5) = (   0.0000000   0.0000000   0.0988363), wk =   0.0002572
        k(    6) = (   0.0000000   0.0000000   0.1235454), wk =   0.0002572
        k(    7) = (   0.0000000   0.0000000  -0.1482545), wk =   0.0001286
        k(    8) = (   0.0000000   0.0321356   0.0000000), wk =   0.0002572
        k(    9) = (   0.0000000   0.0321356   0.0247091), wk =   0.0005144
        k(   10) = (   0.0000000   0.0321356   0.0494182), wk =   0.0005144
        k(   11) = (   0.0000000   0.0321356   0.0741272), wk =   0.0005144
        k(   12) = (   0.0000000   0.0321356   0.0988363), wk =   0.0005144
        k(   13) = (   0.0000000   0.0321356   0.1235454), wk =   0.0005144
        k(   14) = (   0.0000000   0.0321356  -0.1482545), wk =   0.0002572
        k(   15) = (   0.0000000   0.0642713   0.0000000), wk =   0.0002572
        k(   16) = (   0.0000000   0.0642713   0.0247091), wk =   0.0005144
        k(   17) = (   0.0000000   0.0642713   0.0494182), wk =   0.0005144
        k(   18) = (   0.0000000   0.0642713   0.0741272), wk =   0.0005144
        k(   19) = (   0.0000000   0.0642713   0.0988363), wk =   0.0005144
        k(   20) = (   0.0000000   0.0642713   0.1235454), wk =   0.0005144
        k(   21) = (   0.0000000   0.0642713  -0.1482545), wk =   0.0002572
        k(   22) = (   0.0000000   0.0964069   0.0000000), wk =   0.0002572
        k(   23) = (   0.0000000   0.0964069   0.0247091), wk =   0.0005144
        k(   24) = (   0.0000000   0.0964069   0.0494182), wk =   0.0005144
        k(   25) = (   0.0000000   0.0964069   0.0741272), wk =   0.0005144
        k(   26) = (   0.0000000   0.0964069   0.0988363), wk =   0.0005144
        k(   27) = (   0.0000000   0.0964069   0.1235454), wk =   0.0005144
        k(   28) = (   0.0000000   0.0964069  -0.1482545), wk =   0.0002572
        k(   29) = (   0.0000000   0.1285426   0.0000000), wk =   0.0002572
        k(   30) = (   0.0000000   0.1285426   0.0247091), wk =   0.0005144
        k(   31) = (   0.0000000   0.1285426   0.0494182), wk =   0.0005144
        k(   32) = (   0.0000000   0.1285426   0.0741272), wk =   0.0005144
        k(   33) = (   0.0000000   0.1285426   0.0988363), wk =   0.0005144
        k(   34) = (   0.0000000   0.1285426   0.1235454), wk =   0.0005144
        k(   35) = (   0.0000000   0.1285426  -0.1482545), wk =   0.0002572
        k(   36) = (   0.0000000   0.1606782   0.0000000), wk =   0.0002572
        k(   37) = (   0.0000000   0.1606782   0.0247091), wk =   0.0005144
        k(   38) = (   0.0000000   0.1606782   0.0494182), wk =   0.0005144
        k(   39) = (   0.0000000   0.1606782   0.0741272), wk =   0.0005144
        k(   40) = (   0.0000000   0.1606782   0.0988363), wk =   0.0005144
        k(   41) = (   0.0000000   0.1606782   0.1235454), wk =   0.0005144
        k(   42) = (   0.0000000   0.1606782  -0.1482545), wk =   0.0002572
        k(   43) = (   0.0000000   0.1928139   0.0000000), wk =   0.0002572
        k(   44) = (   0.0000000   0.1928139   0.0247091), wk =   0.0005144
        k(   45) = (   0.0000000   0.1928139   0.0494182), wk =   0.0005144
        k(   46) = (   0.0000000   0.1928139   0.0741272), wk =   0.0005144
        k(   47) = (   0.0000000   0.1928139   0.0988363), wk =   0.0005144
        k(   48) = (   0.0000000   0.1928139   0.1235454), wk =   0.0005144
        k(   49) = (   0.0000000   0.1928139  -0.1482545), wk =   0.0002572
        k(   50) = (   0.0000000   0.2249495   0.0000000), wk =   0.0002572
        k(   51) = (   0.0000000   0.2249495   0.0247091), wk =   0.0005144
        k(   52) = (   0.0000000   0.2249495   0.0494182), wk =   0.0005144
        k(   53) = (   0.0000000   0.2249495   0.0741272), wk =   0.0005144
        k(   54) = (   0.0000000   0.2249495   0.0988363), wk =   0.0005144
        k(   55) = (   0.0000000   0.2249495   0.1235454), wk =   0.0005144
        k(   56) = (   0.0000000   0.2249495  -0.1482545), wk =   0.0002572
        k(   57) = (   0.0000000   0.2570852   0.0000000), wk =   0.0002572
        k(   58) = (   0.0000000   0.2570852   0.0247091), wk =   0.0005144
        k(   59) = (   0.0000000   0.2570852   0.0494182), wk =   0.0005144
        k(   60) = (   0.0000000   0.2570852   0.0741272), wk =   0.0005144
        k(   61) = (   0.0000000   0.2570852   0.0988363), wk =   0.0005144
        k(   62) = (   0.0000000   0.2570852   0.1235454), wk =   0.0005144
        k(   63) = (   0.0000000   0.2570852  -0.1482545), wk =   0.0002572
        k(   64) = (   0.0000000   0.2892208   0.0000000), wk =   0.0002572
        k(   65) = (   0.0000000   0.2892208   0.0247091), wk =   0.0005144
        k(   66) = (   0.0000000   0.2892208   0.0494182), wk =   0.0005144
        k(   67) = (   0.0000000   0.2892208   0.0741272), wk =   0.0005144
        k(   68) = (   0.0000000   0.2892208   0.0988363), wk =   0.0005144
        k(   69) = (   0.0000000   0.2892208   0.1235454), wk =   0.0005144
        k(   70) = (   0.0000000   0.2892208  -0.1482545), wk =   0.0002572
        k(   71) = (   0.0000000   0.3213565   0.0000000), wk =   0.0002572
        k(   72) = (   0.0000000   0.3213565   0.0247091), wk =   0.0005144
        k(   73) = (   0.0000000   0.3213565   0.0494182), wk =   0.0005144
        k(   74) = (   0.0000000   0.3213565   0.0741272), wk =   0.0005144
        k(   75) = (   0.0000000   0.3213565   0.0988363), wk =   0.0005144
        k(   76) = (   0.0000000   0.3213565   0.1235454), wk =   0.0005144
        k(   77) = (   0.0000000   0.3213565  -0.1482545), wk =   0.0002572
        k(   78) = (   0.0000000   0.3534921   0.0000000), wk =   0.0002572
        k(   79) = (   0.0000000   0.3534921   0.0247091), wk =   0.0005144
        k(   80) = (   0.0000000   0.3534921   0.0494182), wk =   0.0005144
        k(   81) = (   0.0000000   0.3534921   0.0741272), wk =   0.0005144
        k(   82) = (   0.0000000   0.3534921   0.0988363), wk =   0.0005144
        k(   83) = (   0.0000000   0.3534921   0.1235454), wk =   0.0005144
        k(   84) = (   0.0000000   0.3534921  -0.1482545), wk =   0.0002572
        k(   85) = (   0.0000000   0.3856278   0.0000000), wk =   0.0002572
        k(   86) = (   0.0000000   0.3856278   0.0247091), wk =   0.0005144
        k(   87) = (   0.0000000   0.3856278   0.0494182), wk =   0.0005144
        k(   88) = (   0.0000000   0.3856278   0.0741272), wk =   0.0005144
        k(   89) = (   0.0000000   0.3856278   0.0988363), wk =   0.0005144
        k(   90) = (   0.0000000   0.3856278   0.1235454), wk =   0.0005144
        k(   91) = (   0.0000000   0.3856278  -0.1482545), wk =   0.0002572
        k(   92) = (   0.0000000   0.4177634   0.0000000), wk =   0.0002572
        k(   93) = (   0.0000000   0.4177634   0.0247091), wk =   0.0005144
        k(   94) = (   0.0000000   0.4177634   0.0494182), wk =   0.0005144
        k(   95) = (   0.0000000   0.4177634   0.0741272), wk =   0.0005144
        k(   96) = (   0.0000000   0.4177634   0.0988363), wk =   0.0005144
        k(   97) = (   0.0000000   0.4177634   0.1235454), wk =   0.0005144
        k(   98) = (   0.0000000   0.4177634  -0.1482545), wk =   0.0002572
        k(   99) = (   0.0000000   0.4498991   0.0000000), wk =   0.0002572
        k(  100) = (   0.0000000   0.4498991   0.0247091), wk =   0.0005144
        k(  101) = (   0.0000000   0.4498991   0.0494182), wk =   0.0005144
        k(  102) = (   0.0000000   0.4498991   0.0741272), wk =   0.0005144
        k(  103) = (   0.0000000   0.4498991   0.0988363), wk =   0.0005144
        k(  104) = (   0.0000000   0.4498991   0.1235454), wk =   0.0005144
        k(  105) = (   0.0000000   0.4498991  -0.1482545), wk =   0.0002572
        k(  106) = (   0.0000000   0.4820347   0.0000000), wk =   0.0002572
        k(  107) = (   0.0000000   0.4820347   0.0247091), wk =   0.0005144
        k(  108) = (   0.0000000   0.4820347   0.0494182), wk =   0.0005144
        k(  109) = (   0.0000000   0.4820347   0.0741272), wk =   0.0005144
        k(  110) = (   0.0000000   0.4820347   0.0988363), wk =   0.0005144
        k(  111) = (   0.0000000   0.4820347   0.1235454), wk =   0.0005144
        k(  112) = (   0.0000000   0.4820347  -0.1482545), wk =   0.0002572
        k(  113) = (   0.0000000   0.5141704   0.0000000), wk =   0.0002572
        k(  114) = (   0.0000000   0.5141704   0.0247091), wk =   0.0005144
        k(  115) = (   0.0000000   0.5141704   0.0494182), wk =   0.0005144
        k(  116) = (   0.0000000   0.5141704   0.0741272), wk =   0.0005144
        k(  117) = (   0.0000000   0.5141704   0.0988363), wk =   0.0005144
        k(  118) = (   0.0000000   0.5141704   0.1235454), wk =   0.0005144
        k(  119) = (   0.0000000   0.5141704  -0.1482545), wk =   0.0002572
        k(  120) = (   0.0000000   0.5463060   0.0000000), wk =   0.0002572
        k(  121) = (   0.0000000   0.5463060   0.0247091), wk =   0.0005144
        k(  122) = (   0.0000000   0.5463060   0.0494182), wk =   0.0005144
        k(  123) = (   0.0000000   0.5463060   0.0741272), wk =   0.0005144
        k(  124) = (   0.0000000   0.5463060   0.0988363), wk =   0.0005144
        k(  125) = (   0.0000000   0.5463060   0.1235454), wk =   0.0005144
        k(  126) = (   0.0000000   0.5463060  -0.1482545), wk =   0.0002572
        k(  127) = (   0.0000000  -0.5784417   0.0000000), wk =   0.0001286
        k(  128) = (   0.0000000  -0.5784417   0.0247091), wk =   0.0002572
        k(  129) = (   0.0000000  -0.5784417   0.0494182), wk =   0.0002572
        k(  130) = (   0.0000000  -0.5784417   0.0741272), wk =   0.0002572
        k(  131) = (   0.0000000  -0.5784417   0.0988363), wk =   0.0002572
        k(  132) = (   0.0000000  -0.5784417   0.1235454), wk =   0.0002572
        k(  133) = (   0.0000000  -0.5784417  -0.1482545), wk =   0.0001286
        k(  134) = (   0.0278303   0.0482035   0.0000000), wk =   0.0005144
        k(  135) = (   0.0278303   0.0482035   0.0247091), wk =   0.0010288
        k(  136) = (   0.0278303   0.0482035   0.0494182), wk =   0.0010288
        k(  137) = (   0.0278303   0.0482035   0.0741272), wk =   0.0010288
        k(  138) = (   0.0278303   0.0482035   0.0988363), wk =   0.0010288
        k(  139) = (   0.0278303   0.0482035   0.1235454), wk =   0.0010288
        k(  140) = (   0.0278303   0.0482035  -0.1482545), wk =   0.0005144
        k(  141) = (   0.0278303   0.0803391   0.0000000), wk =   0.0005144
        k(  142) = (   0.0278303   0.0803391   0.0247091), wk =   0.0010288
        k(  143) = (   0.0278303   0.0803391   0.0494182), wk =   0.0010288
        k(  144) = (   0.0278303   0.0803391   0.0741272), wk =   0.0010288
        k(  145) = (   0.0278303   0.0803391   0.0988363), wk =   0.0010288
        k(  146) = (   0.0278303   0.0803391   0.1235454), wk =   0.0010288
        k(  147) = (   0.0278303   0.0803391  -0.1482545), wk =   0.0005144
        k(  148) = (   0.0278303   0.1124748   0.0000000), wk =   0.0005144
        k(  149) = (   0.0278303   0.1124748   0.0247091), wk =   0.0010288
        k(  150) = (   0.0278303   0.1124748   0.0494182), wk =   0.0010288
        k(  151) = (   0.0278303   0.1124748   0.0741272), wk =   0.0010288
        k(  152) = (   0.0278303   0.1124748   0.0988363), wk =   0.0010288
        k(  153) = (   0.0278303   0.1124748   0.1235454), wk =   0.0010288
        k(  154) = (   0.0278303   0.1124748  -0.1482545), wk =   0.0005144
        k(  155) = (   0.0278303   0.1446104   0.0000000), wk =   0.0005144
        k(  156) = (   0.0278303   0.1446104   0.0247091), wk =   0.0010288
        k(  157) = (   0.0278303   0.1446104   0.0494182), wk =   0.0010288
        k(  158) = (   0.0278303   0.1446104   0.0741272), wk =   0.0010288
        k(  159) = (   0.0278303   0.1446104   0.0988363), wk =   0.0010288
        k(  160) = (   0.0278303   0.1446104   0.1235454), wk =   0.0010288
        k(  161) = (   0.0278303   0.1446104  -0.1482545), wk =   0.0005144
        k(  162) = (   0.0278303   0.1767461   0.0000000), wk =   0.0005144
        k(  163) = (   0.0278303   0.1767461   0.0247091), wk =   0.0010288
        k(  164) = (   0.0278303   0.1767461   0.0494182), wk =   0.0010288
        k(  165) = (   0.0278303   0.1767461   0.0741272), wk =   0.0010288
        k(  166) = (   0.0278303   0.1767461   0.0988363), wk =   0.0010288
        k(  167) = (   0.0278303   0.1767461   0.1235454), wk =   0.0010288
        k(  168) = (   0.0278303   0.1767461  -0.1482545), wk =   0.0005144
        k(  169) = (   0.0278303   0.2088817   0.0000000), wk =   0.0005144
        k(  170) = (   0.0278303   0.2088817   0.0247091), wk =   0.0010288
        k(  171) = (   0.0278303   0.2088817   0.0494182), wk =   0.0010288
        k(  172) = (   0.0278303   0.2088817   0.0741272), wk =   0.0010288
        k(  173) = (   0.0278303   0.2088817   0.0988363), wk =   0.0010288
        k(  174) = (   0.0278303   0.2088817   0.1235454), wk =   0.0010288
        k(  175) = (   0.0278303   0.2088817  -0.1482545), wk =   0.0005144
        k(  176) = (   0.0278303   0.2410174   0.0000000), wk =   0.0005144
        k(  177) = (   0.0278303   0.2410174   0.0247091), wk =   0.0010288
        k(  178) = (   0.0278303   0.2410174   0.0494182), wk =   0.0010288
        k(  179) = (   0.0278303   0.2410174   0.0741272), wk =   0.0010288
        k(  180) = (   0.0278303   0.2410174   0.0988363), wk =   0.0010288
        k(  181) = (   0.0278303   0.2410174   0.1235454), wk =   0.0010288
        k(  182) = (   0.0278303   0.2410174  -0.1482545), wk =   0.0005144
        k(  183) = (   0.0278303   0.2731530   0.0000000), wk =   0.0005144
        k(  184) = (   0.0278303   0.2731530   0.0247091), wk =   0.0010288
        k(  185) = (   0.0278303   0.2731530   0.0494182), wk =   0.0010288
        k(  186) = (   0.0278303   0.2731530   0.0741272), wk =   0.0010288
        k(  187) = (   0.0278303   0.2731530   0.0988363), wk =   0.0010288
        k(  188) = (   0.0278303   0.2731530   0.1235454), wk =   0.0010288
        k(  189) = (   0.0278303   0.2731530  -0.1482545), wk =   0.0005144
        k(  190) = (   0.0278303   0.3052887   0.0000000), wk =   0.0005144
        k(  191) = (   0.0278303   0.3052887   0.0247091), wk =   0.0010288
        k(  192) = (   0.0278303   0.3052887   0.0494182), wk =   0.0010288
        k(  193) = (   0.0278303   0.3052887   0.0741272), wk =   0.0010288
        k(  194) = (   0.0278303   0.3052887   0.0988363), wk =   0.0010288
        k(  195) = (   0.0278303   0.3052887   0.1235454), wk =   0.0010288
        k(  196) = (   0.0278303   0.3052887  -0.1482545), wk =   0.0005144
        k(  197) = (   0.0278303   0.3374243   0.0000000), wk =   0.0005144
        k(  198) = (   0.0278303   0.3374243   0.0247091), wk =   0.0010288
        k(  199) = (   0.0278303   0.3374243   0.0494182), wk =   0.0010288
        k(  200) = (   0.0278303   0.3374243   0.0741272), wk =   0.0010288
        k(  201) = (   0.0278303   0.3374243   0.0988363), wk =   0.0010288
        k(  202) = (   0.0278303   0.3374243   0.1235454), wk =   0.0010288
        k(  203) = (   0.0278303   0.3374243  -0.1482545), wk =   0.0005144
        k(  204) = (   0.0278303   0.3695600   0.0000000), wk =   0.0005144
        k(  205) = (   0.0278303   0.3695600   0.0247091), wk =   0.0010288
        k(  206) = (   0.0278303   0.3695600   0.0494182), wk =   0.0010288
        k(  207) = (   0.0278303   0.3695600   0.0741272), wk =   0.0010288
        k(  208) = (   0.0278303   0.3695600   0.0988363), wk =   0.0010288
        k(  209) = (   0.0278303   0.3695600   0.1235454), wk =   0.0010288
        k(  210) = (   0.0278303   0.3695600  -0.1482545), wk =   0.0005144
        k(  211) = (   0.0278303   0.4016956   0.0000000), wk =   0.0005144
        k(  212) = (   0.0278303   0.4016956   0.0247091), wk =   0.0010288
        k(  213) = (   0.0278303   0.4016956   0.0494182), wk =   0.0010288
        k(  214) = (   0.0278303   0.4016956   0.0741272), wk =   0.0010288
        k(  215) = (   0.0278303   0.4016956   0.0988363), wk =   0.0010288
        k(  216) = (   0.0278303   0.4016956   0.1235454), wk =   0.0010288
        k(  217) = (   0.0278303   0.4016956  -0.1482545), wk =   0.0005144
        k(  218) = (   0.0278303   0.4338313   0.0000000), wk =   0.0005144
        k(  219) = (   0.0278303   0.4338313   0.0247091), wk =   0.0010288
        k(  220) = (   0.0278303   0.4338313   0.0494182), wk =   0.0010288
        k(  221) = (   0.0278303   0.4338313   0.0741272), wk =   0.0010288
        k(  222) = (   0.0278303   0.4338313   0.0988363), wk =   0.0010288
        k(  223) = (   0.0278303   0.4338313   0.1235454), wk =   0.0010288
        k(  224) = (   0.0278303   0.4338313  -0.1482545), wk =   0.0005144
        k(  225) = (   0.0278303   0.4659669   0.0000000), wk =   0.0005144
        k(  226) = (   0.0278303   0.4659669   0.0247091), wk =   0.0010288
        k(  227) = (   0.0278303   0.4659669   0.0494182), wk =   0.0010288
        k(  228) = (   0.0278303   0.4659669   0.0741272), wk =   0.0010288
        k(  229) = (   0.0278303   0.4659669   0.0988363), wk =   0.0010288
        k(  230) = (   0.0278303   0.4659669   0.1235454), wk =   0.0010288
        k(  231) = (   0.0278303   0.4659669  -0.1482545), wk =   0.0005144
        k(  232) = (   0.0278303   0.4981026   0.0000000), wk =   0.0005144
        k(  233) = (   0.0278303   0.4981026   0.0247091), wk =   0.0010288
        k(  234) = (   0.0278303   0.4981026   0.0494182), wk =   0.0010288
        k(  235) = (   0.0278303   0.4981026   0.0741272), wk =   0.0010288
        k(  236) = (   0.0278303   0.4981026   0.0988363), wk =   0.0010288
        k(  237) = (   0.0278303   0.4981026   0.1235454), wk =   0.0010288
        k(  238) = (   0.0278303   0.4981026  -0.1482545), wk =   0.0005144
        k(  239) = (   0.0278303   0.5302382   0.0000000), wk =   0.0005144
        k(  240) = (   0.0278303   0.5302382   0.0247091), wk =   0.0010288
        k(  241) = (   0.0278303   0.5302382   0.0494182), wk =   0.0010288
        k(  242) = (   0.0278303   0.5302382   0.0741272), wk =   0.0010288
        k(  243) = (   0.0278303   0.5302382   0.0988363), wk =   0.0010288
        k(  244) = (   0.0278303   0.5302382   0.1235454), wk =   0.0010288
        k(  245) = (   0.0278303   0.5302382  -0.1482545), wk =   0.0005144
        k(  246) = (   0.0278303   0.5623739   0.0000000), wk =   0.0005144
        k(  247) = (   0.0278303   0.5623739   0.0247091), wk =   0.0010288
        k(  248) = (   0.0278303   0.5623739   0.0494182), wk =   0.0010288
        k(  249) = (   0.0278303   0.5623739   0.0741272), wk =   0.0010288
        k(  250) = (   0.0278303   0.5623739   0.0988363), wk =   0.0010288
        k(  251) = (   0.0278303   0.5623739   0.1235454), wk =   0.0010288
        k(  252) = (   0.0278303   0.5623739  -0.1482545), wk =   0.0005144
        k(  253) = (   0.0556606   0.0964069   0.0000000), wk =   0.0005144
        k(  254) = (   0.0556606   0.0964069   0.0247091), wk =   0.0010288
        k(  255) = (   0.0556606   0.0964069   0.0494182), wk =   0.0010288
        k(  256) = (   0.0556606   0.0964069   0.0741272), wk =   0.0010288
        k(  257) = (   0.0556606   0.0964069   0.0988363), wk =   0.0010288
        k(  258) = (   0.0556606   0.0964069   0.1235454), wk =   0.0010288
        k(  259) = (   0.0556606   0.0964069  -0.1482545), wk =   0.0005144
        k(  260) = (   0.0556606   0.1285426   0.0000000), wk =   0.0005144
        k(  261) = (   0.0556606   0.1285426   0.0247091), wk =   0.0010288
        k(  262) = (   0.0556606   0.1285426   0.0494182), wk =   0.0010288
        k(  263) = (   0.0556606   0.1285426   0.0741272), wk =   0.0010288
        k(  264) = (   0.0556606   0.1285426   0.0988363), wk =   0.0010288
        k(  265) = (   0.0556606   0.1285426   0.1235454), wk =   0.0010288
        k(  266) = (   0.0556606   0.1285426  -0.1482545), wk =   0.0005144
        k(  267) = (   0.0556606   0.1606782   0.0000000), wk =   0.0005144
        k(  268) = (   0.0556606   0.1606782   0.0247091), wk =   0.0010288
        k(  269) = (   0.0556606   0.1606782   0.0494182), wk =   0.0010288
        k(  270) = (   0.0556606   0.1606782   0.0741272), wk =   0.0010288
        k(  271) = (   0.0556606   0.1606782   0.0988363), wk =   0.0010288
        k(  272) = (   0.0556606   0.1606782   0.1235454), wk =   0.0010288
        k(  273) = (   0.0556606   0.1606782  -0.1482545), wk =   0.0005144
        k(  274) = (   0.0556606   0.1928139   0.0000000), wk =   0.0005144
        k(  275) = (   0.0556606   0.1928139   0.0247091), wk =   0.0010288
        k(  276) = (   0.0556606   0.1928139   0.0494182), wk =   0.0010288
        k(  277) = (   0.0556606   0.1928139   0.0741272), wk =   0.0010288
        k(  278) = (   0.0556606   0.1928139   0.0988363), wk =   0.0010288
        k(  279) = (   0.0556606   0.1928139   0.1235454), wk =   0.0010288
        k(  280) = (   0.0556606   0.1928139  -0.1482545), wk =   0.0005144
        k(  281) = (   0.0556606   0.2249495   0.0000000), wk =   0.0005144
        k(  282) = (   0.0556606   0.2249495   0.0247091), wk =   0.0010288
        k(  283) = (   0.0556606   0.2249495   0.0494182), wk =   0.0010288
        k(  284) = (   0.0556606   0.2249495   0.0741272), wk =   0.0010288
        k(  285) = (   0.0556606   0.2249495   0.0988363), wk =   0.0010288
        k(  286) = (   0.0556606   0.2249495   0.1235454), wk =   0.0010288
        k(  287) = (   0.0556606   0.2249495  -0.1482545), wk =   0.0005144
        k(  288) = (   0.0556606   0.2570852   0.0000000), wk =   0.0005144
        k(  289) = (   0.0556606   0.2570852   0.0247091), wk =   0.0010288
        k(  290) = (   0.0556606   0.2570852   0.0494182), wk =   0.0010288
        k(  291) = (   0.0556606   0.2570852   0.0741272), wk =   0.0010288
        k(  292) = (   0.0556606   0.2570852   0.0988363), wk =   0.0010288
        k(  293) = (   0.0556606   0.2570852   0.1235454), wk =   0.0010288
        k(  294) = (   0.0556606   0.2570852  -0.1482545), wk =   0.0005144
        k(  295) = (   0.0556606   0.2892208   0.0000000), wk =   0.0005144
        k(  296) = (   0.0556606   0.2892208   0.0247091), wk =   0.0010288
        k(  297) = (   0.0556606   0.2892208   0.0494182), wk =   0.0010288
        k(  298) = (   0.0556606   0.2892208   0.0741272), wk =   0.0010288
        k(  299) = (   0.0556606   0.2892208   0.0988363), wk =   0.0010288
        k(  300) = (   0.0556606   0.2892208   0.1235454), wk =   0.0010288
        k(  301) = (   0.0556606   0.2892208  -0.1482545), wk =   0.0005144
        k(  302) = (   0.0556606   0.3213565   0.0000000), wk =   0.0005144
        k(  303) = (   0.0556606   0.3213565   0.0247091), wk =   0.0010288
        k(  304) = (   0.0556606   0.3213565   0.0494182), wk =   0.0010288
        k(  305) = (   0.0556606   0.3213565   0.0741272), wk =   0.0010288
        k(  306) = (   0.0556606   0.3213565   0.0988363), wk =   0.0010288
        k(  307) = (   0.0556606   0.3213565   0.1235454), wk =   0.0010288
        k(  308) = (   0.0556606   0.3213565  -0.1482545), wk =   0.0005144
        k(  309) = (   0.0556606   0.3534921   0.0000000), wk =   0.0005144
        k(  310) = (   0.0556606   0.3534921   0.0247091), wk =   0.0010288
        k(  311) = (   0.0556606   0.3534921   0.0494182), wk =   0.0010288
        k(  312) = (   0.0556606   0.3534921   0.0741272), wk =   0.0010288
        k(  313) = (   0.0556606   0.3534921   0.0988363), wk =   0.0010288
        k(  314) = (   0.0556606   0.3534921   0.1235454), wk =   0.0010288
        k(  315) = (   0.0556606   0.3534921  -0.1482545), wk =   0.0005144
        k(  316) = (   0.0556606   0.3856278   0.0000000), wk =   0.0005144
        k(  317) = (   0.0556606   0.3856278   0.0247091), wk =   0.0010288
        k(  318) = (   0.0556606   0.3856278   0.0494182), wk =   0.0010288
        k(  319) = (   0.0556606   0.3856278   0.0741272), wk =   0.0010288
        k(  320) = (   0.0556606   0.3856278   0.0988363), wk =   0.0010288
        k(  321) = (   0.0556606   0.3856278   0.1235454), wk =   0.0010288
        k(  322) = (   0.0556606   0.3856278  -0.1482545), wk =   0.0005144
        k(  323) = (   0.0556606   0.4177634   0.0000000), wk =   0.0005144
        k(  324) = (   0.0556606   0.4177634   0.0247091), wk =   0.0010288
        k(  325) = (   0.0556606   0.4177634   0.0494182), wk =   0.0010288
        k(  326) = (   0.0556606   0.4177634   0.0741272), wk =   0.0010288
        k(  327) = (   0.0556606   0.4177634   0.0988363), wk =   0.0010288
        k(  328) = (   0.0556606   0.4177634   0.1235454), wk =   0.0010288
        k(  329) = (   0.0556606   0.4177634  -0.1482545), wk =   0.0005144
        k(  330) = (   0.0556606   0.4498991   0.0000000), wk =   0.0005144
        k(  331) = (   0.0556606   0.4498991   0.0247091), wk =   0.0010288
        k(  332) = (   0.0556606   0.4498991   0.0494182), wk =   0.0010288
        k(  333) = (   0.0556606   0.4498991   0.0741272), wk =   0.0010288
        k(  334) = (   0.0556606   0.4498991   0.0988363), wk =   0.0010288
        k(  335) = (   0.0556606   0.4498991   0.1235454), wk =   0.0010288
        k(  336) = (   0.0556606   0.4498991  -0.1482545), wk =   0.0005144
        k(  337) = (   0.0556606   0.4820347   0.0000000), wk =   0.0005144
        k(  338) = (   0.0556606   0.4820347   0.0247091), wk =   0.0010288
        k(  339) = (   0.0556606   0.4820347   0.0494182), wk =   0.0010288
        k(  340) = (   0.0556606   0.4820347   0.0741272), wk =   0.0010288
        k(  341) = (   0.0556606   0.4820347   0.0988363), wk =   0.0010288
        k(  342) = (   0.0556606   0.4820347   0.1235454), wk =   0.0010288
        k(  343) = (   0.0556606   0.4820347  -0.1482545), wk =   0.0005144
        k(  344) = (   0.0556606   0.5141704   0.0000000), wk =   0.0005144
        k(  345) = (   0.0556606   0.5141704   0.0247091), wk =   0.0010288
        k(  346) = (   0.0556606   0.5141704   0.0494182), wk =   0.0010288
        k(  347) = (   0.0556606   0.5141704   0.0741272), wk =   0.0010288
        k(  348) = (   0.0556606   0.5141704   0.0988363), wk =   0.0010288
        k(  349) = (   0.0556606   0.5141704   0.1235454), wk =   0.0010288
        k(  350) = (   0.0556606   0.5141704  -0.1482545), wk =   0.0005144
        k(  351) = (   0.0556606   0.5463060   0.0000000), wk =   0.0005144
        k(  352) = (   0.0556606   0.5463060   0.0247091), wk =   0.0010288
        k(  353) = (   0.0556606   0.5463060   0.0494182), wk =   0.0010288
        k(  354) = (   0.0556606   0.5463060   0.0741272), wk =   0.0010288
        k(  355) = (   0.0556606   0.5463060   0.0988363), wk =   0.0010288
        k(  356) = (   0.0556606   0.5463060   0.1235454), wk =   0.0010288
        k(  357) = (   0.0556606   0.5463060  -0.1482545), wk =   0.0005144
        k(  358) = (   0.0556606   0.5784417   0.0000000), wk =   0.0002572
        k(  359) = (   0.0556606   0.5784417   0.0247091), wk =   0.0005144
        k(  360) = (   0.0556606   0.5784417   0.0494182), wk =   0.0005144
        k(  361) = (   0.0556606   0.5784417   0.0741272), wk =   0.0005144
        k(  362) = (   0.0556606   0.5784417   0.0988363), wk =   0.0005144
        k(  363) = (   0.0556606   0.5784417   0.1235454), wk =   0.0005144
        k(  364) = (   0.0556606   0.5784417  -0.1482545), wk =   0.0002572
        k(  365) = (   0.0834909   0.1446104   0.0000000), wk =   0.0005144
        k(  366) = (   0.0834909   0.1446104   0.0247091), wk =   0.0010288
        k(  367) = (   0.0834909   0.1446104   0.0494182), wk =   0.0010288
        k(  368) = (   0.0834909   0.1446104   0.0741272), wk =   0.0010288
        k(  369) = (   0.0834909   0.1446104   0.0988363), wk =   0.0010288
        k(  370) = (   0.0834909   0.1446104   0.1235454), wk =   0.0010288
        k(  371) = (   0.0834909   0.1446104  -0.1482545), wk =   0.0005144
        k(  372) = (   0.0834909   0.1767461   0.0000000), wk =   0.0005144
        k(  373) = (   0.0834909   0.1767461   0.0247091), wk =   0.0010288
        k(  374) = (   0.0834909   0.1767461   0.0494182), wk =   0.0010288
        k(  375) = (   0.0834909   0.1767461   0.0741272), wk =   0.0010288
        k(  376) = (   0.0834909   0.1767461   0.0988363), wk =   0.0010288
        k(  377) = (   0.0834909   0.1767461   0.1235454), wk =   0.0010288
        k(  378) = (   0.0834909   0.1767461  -0.1482545), wk =   0.0005144
        k(  379) = (   0.0834909   0.2088817   0.0000000), wk =   0.0005144
        k(  380) = (   0.0834909   0.2088817   0.0247091), wk =   0.0010288
        k(  381) = (   0.0834909   0.2088817   0.0494182), wk =   0.0010288
        k(  382) = (   0.0834909   0.2088817   0.0741272), wk =   0.0010288
        k(  383) = (   0.0834909   0.2088817   0.0988363), wk =   0.0010288
        k(  384) = (   0.0834909   0.2088817   0.1235454), wk =   0.0010288
        k(  385) = (   0.0834909   0.2088817  -0.1482545), wk =   0.0005144
        k(  386) = (   0.0834909   0.2410174   0.0000000), wk =   0.0005144
        k(  387) = (   0.0834909   0.2410174   0.0247091), wk =   0.0010288
        k(  388) = (   0.0834909   0.2410174   0.0494182), wk =   0.0010288
        k(  389) = (   0.0834909   0.2410174   0.0741272), wk =   0.0010288
        k(  390) = (   0.0834909   0.2410174   0.0988363), wk =   0.0010288
        k(  391) = (   0.0834909   0.2410174   0.1235454), wk =   0.0010288
        k(  392) = (   0.0834909   0.2410174  -0.1482545), wk =   0.0005144
        k(  393) = (   0.0834909   0.2731530   0.0000000), wk =   0.0005144
        k(  394) = (   0.0834909   0.2731530   0.0247091), wk =   0.0010288
        k(  395) = (   0.0834909   0.2731530   0.0494182), wk =   0.0010288
        k(  396) = (   0.0834909   0.2731530   0.0741272), wk =   0.0010288
        k(  397) = (   0.0834909   0.2731530   0.0988363), wk =   0.0010288
        k(  398) = (   0.0834909   0.2731530   0.1235454), wk =   0.0010288
        k(  399) = (   0.0834909   0.2731530  -0.1482545), wk =   0.0005144
        k(  400) = (   0.0834909   0.3052887   0.0000000), wk =   0.0005144
        k(  401) = (   0.0834909   0.3052887   0.0247091), wk =   0.0010288
        k(  402) = (   0.0834909   0.3052887   0.0494182), wk =   0.0010288
        k(  403) = (   0.0834909   0.3052887   0.0741272), wk =   0.0010288
        k(  404) = (   0.0834909   0.3052887   0.0988363), wk =   0.0010288
        k(  405) = (   0.0834909   0.3052887   0.1235454), wk =   0.0010288
        k(  406) = (   0.0834909   0.3052887  -0.1482545), wk =   0.0005144
        k(  407) = (   0.0834909   0.3374243   0.0000000), wk =   0.0005144
        k(  408) = (   0.0834909   0.3374243   0.0247091), wk =   0.0010288
        k(  409) = (   0.0834909   0.3374243   0.0494182), wk =   0.0010288
        k(  410) = (   0.0834909   0.3374243   0.0741272), wk =   0.0010288
        k(  411) = (   0.0834909   0.3374243   0.0988363), wk =   0.0010288
        k(  412) = (   0.0834909   0.3374243   0.1235454), wk =   0.0010288
        k(  413) = (   0.0834909   0.3374243  -0.1482545), wk =   0.0005144
        k(  414) = (   0.0834909   0.3695600   0.0000000), wk =   0.0005144
        k(  415) = (   0.0834909   0.3695600   0.0247091), wk =   0.0010288
        k(  416) = (   0.0834909   0.3695600   0.0494182), wk =   0.0010288
        k(  417) = (   0.0834909   0.3695600   0.0741272), wk =   0.0010288
        k(  418) = (   0.0834909   0.3695600   0.0988363), wk =   0.0010288
        k(  419) = (   0.0834909   0.3695600   0.1235454), wk =   0.0010288
        k(  420) = (   0.0834909   0.3695600  -0.1482545), wk =   0.0005144
        k(  421) = (   0.0834909   0.4016956   0.0000000), wk =   0.0005144
        k(  422) = (   0.0834909   0.4016956   0.0247091), wk =   0.0010288
        k(  423) = (   0.0834909   0.4016956   0.0494182), wk =   0.0010288
        k(  424) = (   0.0834909   0.4016956   0.0741272), wk =   0.0010288
        k(  425) = (   0.0834909   0.4016956   0.0988363), wk =   0.0010288
        k(  426) = (   0.0834909   0.4016956   0.1235454), wk =   0.0010288
        k(  427) = (   0.0834909   0.4016956  -0.1482545), wk =   0.0005144
        k(  428) = (   0.0834909   0.4338313   0.0000000), wk =   0.0005144
        k(  429) = (   0.0834909   0.4338313   0.0247091), wk =   0.0010288
        k(  430) = (   0.0834909   0.4338313   0.0494182), wk =   0.0010288
        k(  431) = (   0.0834909   0.4338313   0.0741272), wk =   0.0010288
        k(  432) = (   0.0834909   0.4338313   0.0988363), wk =   0.0010288
        k(  433) = (   0.0834909   0.4338313   0.1235454), wk =   0.0010288
        k(  434) = (   0.0834909   0.4338313  -0.1482545), wk =   0.0005144
        k(  435) = (   0.0834909   0.4659669   0.0000000), wk =   0.0005144
        k(  436) = (   0.0834909   0.4659669   0.0247091), wk =   0.0010288
        k(  437) = (   0.0834909   0.4659669   0.0494182), wk =   0.0010288
        k(  438) = (   0.0834909   0.4659669   0.0741272), wk =   0.0010288
        k(  439) = (   0.0834909   0.4659669   0.0988363), wk =   0.0010288
        k(  440) = (   0.0834909   0.4659669   0.1235454), wk =   0.0010288
        k(  441) = (   0.0834909   0.4659669  -0.1482545), wk =   0.0005144
        k(  442) = (   0.0834909   0.4981026   0.0000000), wk =   0.0005144
        k(  443) = (   0.0834909   0.4981026   0.0247091), wk =   0.0010288
        k(  444) = (   0.0834909   0.4981026   0.0494182), wk =   0.0010288
        k(  445) = (   0.0834909   0.4981026   0.0741272), wk =   0.0010288
        k(  446) = (   0.0834909   0.4981026   0.0988363), wk =   0.0010288
        k(  447) = (   0.0834909   0.4981026   0.1235454), wk =   0.0010288
        k(  448) = (   0.0834909   0.4981026  -0.1482545), wk =   0.0005144
        k(  449) = (   0.0834909   0.5302382   0.0000000), wk =   0.0005144
        k(  450) = (   0.0834909   0.5302382   0.0247091), wk =   0.0010288
        k(  451) = (   0.0834909   0.5302382   0.0494182), wk =   0.0010288
        k(  452) = (   0.0834909   0.5302382   0.0741272), wk =   0.0010288
        k(  453) = (   0.0834909   0.5302382   0.0988363), wk =   0.0010288
        k(  454) = (   0.0834909   0.5302382   0.1235454), wk =   0.0010288
        k(  455) = (   0.0834909   0.5302382  -0.1482545), wk =   0.0005144
        k(  456) = (   0.0834909   0.5623739   0.0000000), wk =   0.0005144
        k(  457) = (   0.0834909   0.5623739   0.0247091), wk =   0.0010288
        k(  458) = (   0.0834909   0.5623739   0.0494182), wk =   0.0010288
        k(  459) = (   0.0834909   0.5623739   0.0741272), wk =   0.0010288
        k(  460) = (   0.0834909   0.5623739   0.0988363), wk =   0.0010288
        k(  461) = (   0.0834909   0.5623739   0.1235454), wk =   0.0010288
        k(  462) = (   0.0834909   0.5623739  -0.1482545), wk =   0.0005144
        k(  463) = (   0.1113212   0.1928139   0.0000000), wk =   0.0005144
        k(  464) = (   0.1113212   0.1928139   0.0247091), wk =   0.0010288
        k(  465) = (   0.1113212   0.1928139   0.0494182), wk =   0.0010288
        k(  466) = (   0.1113212   0.1928139   0.0741272), wk =   0.0010288
        k(  467) = (   0.1113212   0.1928139   0.0988363), wk =   0.0010288
        k(  468) = (   0.1113212   0.1928139   0.1235454), wk =   0.0010288
        k(  469) = (   0.1113212   0.1928139  -0.1482545), wk =   0.0005144
        k(  470) = (   0.1113212   0.2249495   0.0000000), wk =   0.0005144
        k(  471) = (   0.1113212   0.2249495   0.0247091), wk =   0.0010288
        k(  472) = (   0.1113212   0.2249495   0.0494182), wk =   0.0010288
        k(  473) = (   0.1113212   0.2249495   0.0741272), wk =   0.0010288
        k(  474) = (   0.1113212   0.2249495   0.0988363), wk =   0.0010288
        k(  475) = (   0.1113212   0.2249495   0.1235454), wk =   0.0010288
        k(  476) = (   0.1113212   0.2249495  -0.1482545), wk =   0.0005144
        k(  477) = (   0.1113212   0.2570852   0.0000000), wk =   0.0005144
        k(  478) = (   0.1113212   0.2570852   0.0247091), wk =   0.0010288
        k(  479) = (   0.1113212   0.2570852   0.0494182), wk =   0.0010288
        k(  480) = (   0.1113212   0.2570852   0.0741272), wk =   0.0010288
        k(  481) = (   0.1113212   0.2570852   0.0988363), wk =   0.0010288
        k(  482) = (   0.1113212   0.2570852   0.1235454), wk =   0.0010288
        k(  483) = (   0.1113212   0.2570852  -0.1482545), wk =   0.0005144
        k(  484) = (   0.1113212   0.2892208   0.0000000), wk =   0.0005144
        k(  485) = (   0.1113212   0.2892208   0.0247091), wk =   0.0010288
        k(  486) = (   0.1113212   0.2892208   0.0494182), wk =   0.0010288
        k(  487) = (   0.1113212   0.2892208   0.0741272), wk =   0.0010288
        k(  488) = (   0.1113212   0.2892208   0.0988363), wk =   0.0010288
        k(  489) = (   0.1113212   0.2892208   0.1235454), wk =   0.0010288
        k(  490) = (   0.1113212   0.2892208  -0.1482545), wk =   0.0005144
        k(  491) = (   0.1113212   0.3213565   0.0000000), wk =   0.0005144
        k(  492) = (   0.1113212   0.3213565   0.0247091), wk =   0.0010288
        k(  493) = (   0.1113212   0.3213565   0.0494182), wk =   0.0010288
        k(  494) = (   0.1113212   0.3213565   0.0741272), wk =   0.0010288
        k(  495) = (   0.1113212   0.3213565   0.0988363), wk =   0.0010288
        k(  496) = (   0.1113212   0.3213565   0.1235454), wk =   0.0010288
        k(  497) = (   0.1113212   0.3213565  -0.1482545), wk =   0.0005144
        k(  498) = (   0.1113212   0.3534921   0.0000000), wk =   0.0005144
        k(  499) = (   0.1113212   0.3534921   0.0247091), wk =   0.0010288
        k(  500) = (   0.1113212   0.3534921   0.0494182), wk =   0.0010288
        k(  501) = (   0.1113212   0.3534921   0.0741272), wk =   0.0010288
        k(  502) = (   0.1113212   0.3534921   0.0988363), wk =   0.0010288
        k(  503) = (   0.1113212   0.3534921   0.1235454), wk =   0.0010288
        k(  504) = (   0.1113212   0.3534921  -0.1482545), wk =   0.0005144
        k(  505) = (   0.1113212   0.3856278   0.0000000), wk =   0.0005144
        k(  506) = (   0.1113212   0.3856278   0.0247091), wk =   0.0010288
        k(  507) = (   0.1113212   0.3856278   0.0494182), wk =   0.0010288
        k(  508) = (   0.1113212   0.3856278   0.0741272), wk =   0.0010288
        k(  509) = (   0.1113212   0.3856278   0.0988363), wk =   0.0010288
        k(  510) = (   0.1113212   0.3856278   0.1235454), wk =   0.0010288
        k(  511) = (   0.1113212   0.3856278  -0.1482545), wk =   0.0005144
        k(  512) = (   0.1113212   0.4177634   0.0000000), wk =   0.0005144
        k(  513) = (   0.1113212   0.4177634   0.0247091), wk =   0.0010288
        k(  514) = (   0.1113212   0.4177634   0.0494182), wk =   0.0010288
        k(  515) = (   0.1113212   0.4177634   0.0741272), wk =   0.0010288
        k(  516) = (   0.1113212   0.4177634   0.0988363), wk =   0.0010288
        k(  517) = (   0.1113212   0.4177634   0.1235454), wk =   0.0010288
        k(  518) = (   0.1113212   0.4177634  -0.1482545), wk =   0.0005144
        k(  519) = (   0.1113212   0.4498991   0.0000000), wk =   0.0005144
        k(  520) = (   0.1113212   0.4498991   0.0247091), wk =   0.0010288
        k(  521) = (   0.1113212   0.4498991   0.0494182), wk =   0.0010288
        k(  522) = (   0.1113212   0.4498991   0.0741272), wk =   0.0010288
        k(  523) = (   0.1113212   0.4498991   0.0988363), wk =   0.0010288
        k(  524) = (   0.1113212   0.4498991   0.1235454), wk =   0.0010288
        k(  525) = (   0.1113212   0.4498991  -0.1482545), wk =   0.0005144
        k(  526) = (   0.1113212   0.4820347   0.0000000), wk =   0.0005144
        k(  527) = (   0.1113212   0.4820347   0.0247091), wk =   0.0010288
        k(  528) = (   0.1113212   0.4820347   0.0494182), wk =   0.0010288
        k(  529) = (   0.1113212   0.4820347   0.0741272), wk =   0.0010288
        k(  530) = (   0.1113212   0.4820347   0.0988363), wk =   0.0010288
        k(  531) = (   0.1113212   0.4820347   0.1235454), wk =   0.0010288
        k(  532) = (   0.1113212   0.4820347  -0.1482545), wk =   0.0005144
        k(  533) = (   0.1113212   0.5141704   0.0000000), wk =   0.0005144
        k(  534) = (   0.1113212   0.5141704   0.0247091), wk =   0.0010288
        k(  535) = (   0.1113212   0.5141704   0.0494182), wk =   0.0010288
        k(  536) = (   0.1113212   0.5141704   0.0741272), wk =   0.0010288
        k(  537) = (   0.1113212   0.5141704   0.0988363), wk =   0.0010288
        k(  538) = (   0.1113212   0.5141704   0.1235454), wk =   0.0010288
        k(  539) = (   0.1113212   0.5141704  -0.1482545), wk =   0.0005144
        k(  540) = (   0.1113212   0.5463060   0.0000000), wk =   0.0005144
        k(  541) = (   0.1113212   0.5463060   0.0247091), wk =   0.0010288
        k(  542) = (   0.1113212   0.5463060   0.0494182), wk =   0.0010288
        k(  543) = (   0.1113212   0.5463060   0.0741272), wk =   0.0010288
        k(  544) = (   0.1113212   0.5463060   0.0988363), wk =   0.0010288
        k(  545) = (   0.1113212   0.5463060   0.1235454), wk =   0.0010288
        k(  546) = (   0.1113212   0.5463060  -0.1482545), wk =   0.0005144
        k(  547) = (   0.1113212   0.5784417   0.0000000), wk =   0.0002572
        k(  548) = (   0.1113212   0.5784417   0.0247091), wk =   0.0005144
        k(  549) = (   0.1113212   0.5784417   0.0494182), wk =   0.0005144
        k(  550) = (   0.1113212   0.5784417   0.0741272), wk =   0.0005144
        k(  551) = (   0.1113212   0.5784417   0.0988363), wk =   0.0005144
        k(  552) = (   0.1113212   0.5784417   0.1235454), wk =   0.0005144
        k(  553) = (   0.1113212   0.5784417  -0.1482545), wk =   0.0002572
        k(  554) = (   0.1391514   0.2410174   0.0000000), wk =   0.0005144
        k(  555) = (   0.1391514   0.2410174   0.0247091), wk =   0.0010288
        k(  556) = (   0.1391514   0.2410174   0.0494182), wk =   0.0010288
        k(  557) = (   0.1391514   0.2410174   0.0741272), wk =   0.0010288
        k(  558) = (   0.1391514   0.2410174   0.0988363), wk =   0.0010288
        k(  559) = (   0.1391514   0.2410174   0.1235454), wk =   0.0010288
        k(  560) = (   0.1391514   0.2410174  -0.1482545), wk =   0.0005144
        k(  561) = (   0.1391514   0.2731530   0.0000000), wk =   0.0005144
        k(  562) = (   0.1391514   0.2731530   0.0247091), wk =   0.0010288
        k(  563) = (   0.1391514   0.2731530   0.0494182), wk =   0.0010288
        k(  564) = (   0.1391514   0.2731530   0.0741272), wk =   0.0010288
        k(  565) = (   0.1391514   0.2731530   0.0988363), wk =   0.0010288
        k(  566) = (   0.1391514   0.2731530   0.1235454), wk =   0.0010288
        k(  567) = (   0.1391514   0.2731530  -0.1482545), wk =   0.0005144
        k(  568) = (   0.1391514   0.3052887   0.0000000), wk =   0.0005144
        k(  569) = (   0.1391514   0.3052887   0.0247091), wk =   0.0010288
        k(  570) = (   0.1391514   0.3052887   0.0494182), wk =   0.0010288
        k(  571) = (   0.1391514   0.3052887   0.0741272), wk =   0.0010288
        k(  572) = (   0.1391514   0.3052887   0.0988363), wk =   0.0010288
        k(  573) = (   0.1391514   0.3052887   0.1235454), wk =   0.0010288
        k(  574) = (   0.1391514   0.3052887  -0.1482545), wk =   0.0005144
        k(  575) = (   0.1391514   0.3374243   0.0000000), wk =   0.0005144
        k(  576) = (   0.1391514   0.3374243   0.0247091), wk =   0.0010288
        k(  577) = (   0.1391514   0.3374243   0.0494182), wk =   0.0010288
        k(  578) = (   0.1391514   0.3374243   0.0741272), wk =   0.0010288
        k(  579) = (   0.1391514   0.3374243   0.0988363), wk =   0.0010288
        k(  580) = (   0.1391514   0.3374243   0.1235454), wk =   0.0010288
        k(  581) = (   0.1391514   0.3374243  -0.1482545), wk =   0.0005144
        k(  582) = (   0.1391514   0.3695600   0.0000000), wk =   0.0005144
        k(  583) = (   0.1391514   0.3695600   0.0247091), wk =   0.0010288
        k(  584) = (   0.1391514   0.3695600   0.0494182), wk =   0.0010288
        k(  585) = (   0.1391514   0.3695600   0.0741272), wk =   0.0010288
        k(  586) = (   0.1391514   0.3695600   0.0988363), wk =   0.0010288
        k(  587) = (   0.1391514   0.3695600   0.1235454), wk =   0.0010288
        k(  588) = (   0.1391514   0.3695600  -0.1482545), wk =   0.0005144
        k(  589) = (   0.1391514   0.4016956   0.0000000), wk =   0.0005144
        k(  590) = (   0.1391514   0.4016956   0.0247091), wk =   0.0010288
        k(  591) = (   0.1391514   0.4016956   0.0494182), wk =   0.0010288
        k(  592) = (   0.1391514   0.4016956   0.0741272), wk =   0.0010288
        k(  593) = (   0.1391514   0.4016956   0.0988363), wk =   0.0010288
        k(  594) = (   0.1391514   0.4016956   0.1235454), wk =   0.0010288
        k(  595) = (   0.1391514   0.4016956  -0.1482545), wk =   0.0005144
        k(  596) = (   0.1391514   0.4338313   0.0000000), wk =   0.0005144
        k(  597) = (   0.1391514   0.4338313   0.0247091), wk =   0.0010288
        k(  598) = (   0.1391514   0.4338313   0.0494182), wk =   0.0010288
        k(  599) = (   0.1391514   0.4338313   0.0741272), wk =   0.0010288
        k(  600) = (   0.1391514   0.4338313   0.0988363), wk =   0.0010288
        k(  601) = (   0.1391514   0.4338313   0.1235454), wk =   0.0010288
        k(  602) = (   0.1391514   0.4338313  -0.1482545), wk =   0.0005144
        k(  603) = (   0.1391514   0.4659669   0.0000000), wk =   0.0005144
        k(  604) = (   0.1391514   0.4659669   0.0247091), wk =   0.0010288
        k(  605) = (   0.1391514   0.4659669   0.0494182), wk =   0.0010288
        k(  606) = (   0.1391514   0.4659669   0.0741272), wk =   0.0010288
        k(  607) = (   0.1391514   0.4659669   0.0988363), wk =   0.0010288
        k(  608) = (   0.1391514   0.4659669   0.1235454), wk =   0.0010288
        k(  609) = (   0.1391514   0.4659669  -0.1482545), wk =   0.0005144
        k(  610) = (   0.1391514   0.4981026   0.0000000), wk =   0.0005144
        k(  611) = (   0.1391514   0.4981026   0.0247091), wk =   0.0010288
        k(  612) = (   0.1391514   0.4981026   0.0494182), wk =   0.0010288
        k(  613) = (   0.1391514   0.4981026   0.0741272), wk =   0.0010288
        k(  614) = (   0.1391514   0.4981026   0.0988363), wk =   0.0010288
        k(  615) = (   0.1391514   0.4981026   0.1235454), wk =   0.0010288
        k(  616) = (   0.1391514   0.4981026  -0.1482545), wk =   0.0005144
        k(  617) = (   0.1391514   0.5302382   0.0000000), wk =   0.0005144
        k(  618) = (   0.1391514   0.5302382   0.0247091), wk =   0.0010288
        k(  619) = (   0.1391514   0.5302382   0.0494182), wk =   0.0010288
        k(  620) = (   0.1391514   0.5302382   0.0741272), wk =   0.0010288
        k(  621) = (   0.1391514   0.5302382   0.0988363), wk =   0.0010288
        k(  622) = (   0.1391514   0.5302382   0.1235454), wk =   0.0010288
        k(  623) = (   0.1391514   0.5302382  -0.1482545), wk =   0.0005144
        k(  624) = (   0.1391514   0.5623739   0.0000000), wk =   0.0005144
        k(  625) = (   0.1391514   0.5623739   0.0247091), wk =   0.0010288
        k(  626) = (   0.1391514   0.5623739   0.0494182), wk =   0.0010288
        k(  627) = (   0.1391514   0.5623739   0.0741272), wk =   0.0010288
        k(  628) = (   0.1391514   0.5623739   0.0988363), wk =   0.0010288
        k(  629) = (   0.1391514   0.5623739   0.1235454), wk =   0.0010288
        k(  630) = (   0.1391514   0.5623739  -0.1482545), wk =   0.0005144
        k(  631) = (   0.1669817   0.2892208   0.0000000), wk =   0.0005144
        k(  632) = (   0.1669817   0.2892208   0.0247091), wk =   0.0010288
        k(  633) = (   0.1669817   0.2892208   0.0494182), wk =   0.0010288
        k(  634) = (   0.1669817   0.2892208   0.0741272), wk =   0.0010288
        k(  635) = (   0.1669817   0.2892208   0.0988363), wk =   0.0010288
        k(  636) = (   0.1669817   0.2892208   0.1235454), wk =   0.0010288
        k(  637) = (   0.1669817   0.2892208  -0.1482545), wk =   0.0005144
        k(  638) = (   0.1669817   0.3213565   0.0000000), wk =   0.0005144
        k(  639) = (   0.1669817   0.3213565   0.0247091), wk =   0.0010288
        k(  640) = (   0.1669817   0.3213565   0.0494182), wk =   0.0010288
        k(  641) = (   0.1669817   0.3213565   0.0741272), wk =   0.0010288
        k(  642) = (   0.1669817   0.3213565   0.0988363), wk =   0.0010288
        k(  643) = (   0.1669817   0.3213565   0.1235454), wk =   0.0010288
        k(  644) = (   0.1669817   0.3213565  -0.1482545), wk =   0.0005144
        k(  645) = (   0.1669817   0.3534921   0.0000000), wk =   0.0005144
        k(  646) = (   0.1669817   0.3534921   0.0247091), wk =   0.0010288
        k(  647) = (   0.1669817   0.3534921   0.0494182), wk =   0.0010288
        k(  648) = (   0.1669817   0.3534921   0.0741272), wk =   0.0010288
        k(  649) = (   0.1669817   0.3534921   0.0988363), wk =   0.0010288
        k(  650) = (   0.1669817   0.3534921   0.1235454), wk =   0.0010288
        k(  651) = (   0.1669817   0.3534921  -0.1482545), wk =   0.0005144
        k(  652) = (   0.1669817   0.3856278   0.0000000), wk =   0.0005144
        k(  653) = (   0.1669817   0.3856278   0.0247091), wk =   0.0010288
        k(  654) = (   0.1669817   0.3856278   0.0494182), wk =   0.0010288
        k(  655) = (   0.1669817   0.3856278   0.0741272), wk =   0.0010288
        k(  656) = (   0.1669817   0.3856278   0.0988363), wk =   0.0010288
        k(  657) = (   0.1669817   0.3856278   0.1235454), wk =   0.0010288
        k(  658) = (   0.1669817   0.3856278  -0.1482545), wk =   0.0005144
        k(  659) = (   0.1669817   0.4177634   0.0000000), wk =   0.0005144
        k(  660) = (   0.1669817   0.4177634   0.0247091), wk =   0.0010288
        k(  661) = (   0.1669817   0.4177634   0.0494182), wk =   0.0010288
        k(  662) = (   0.1669817   0.4177634   0.0741272), wk =   0.0010288
        k(  663) = (   0.1669817   0.4177634   0.0988363), wk =   0.0010288
        k(  664) = (   0.1669817   0.4177634   0.1235454), wk =   0.0010288
        k(  665) = (   0.1669817   0.4177634  -0.1482545), wk =   0.0005144
        k(  666) = (   0.1669817   0.4498991   0.0000000), wk =   0.0005144
        k(  667) = (   0.1669817   0.4498991   0.0247091), wk =   0.0010288
        k(  668) = (   0.1669817   0.4498991   0.0494182), wk =   0.0010288
        k(  669) = (   0.1669817   0.4498991   0.0741272), wk =   0.0010288
        k(  670) = (   0.1669817   0.4498991   0.0988363), wk =   0.0010288
        k(  671) = (   0.1669817   0.4498991   0.1235454), wk =   0.0010288
        k(  672) = (   0.1669817   0.4498991  -0.1482545), wk =   0.0005144
        k(  673) = (   0.1669817   0.4820347   0.0000000), wk =   0.0005144
        k(  674) = (   0.1669817   0.4820347   0.0247091), wk =   0.0010288
        k(  675) = (   0.1669817   0.4820347   0.0494182), wk =   0.0010288
        k(  676) = (   0.1669817   0.4820347   0.0741272), wk =   0.0010288
        k(  677) = (   0.1669817   0.4820347   0.0988363), wk =   0.0010288
        k(  678) = (   0.1669817   0.4820347   0.1235454), wk =   0.0010288
        k(  679) = (   0.1669817   0.4820347  -0.1482545), wk =   0.0005144
        k(  680) = (   0.1669817   0.5141704   0.0000000), wk =   0.0005144
        k(  681) = (   0.1669817   0.5141704   0.0247091), wk =   0.0010288
        k(  682) = (   0.1669817   0.5141704   0.0494182), wk =   0.0010288
        k(  683) = (   0.1669817   0.5141704   0.0741272), wk =   0.0010288
        k(  684) = (   0.1669817   0.5141704   0.0988363), wk =   0.0010288
        k(  685) = (   0.1669817   0.5141704   0.1235454), wk =   0.0010288
        k(  686) = (   0.1669817   0.5141704  -0.1482545), wk =   0.0005144
        k(  687) = (   0.1669817   0.5463060   0.0000000), wk =   0.0005144
        k(  688) = (   0.1669817   0.5463060   0.0247091), wk =   0.0010288
        k(  689) = (   0.1669817   0.5463060   0.0494182), wk =   0.0010288
        k(  690) = (   0.1669817   0.5463060   0.0741272), wk =   0.0010288
        k(  691) = (   0.1669817   0.5463060   0.0988363), wk =   0.0010288
        k(  692) = (   0.1669817   0.5463060   0.1235454), wk =   0.0010288
        k(  693) = (   0.1669817   0.5463060  -0.1482545), wk =   0.0005144
        k(  694) = (   0.1669817   0.5784417   0.0000000), wk =   0.0002572
        k(  695) = (   0.1669817   0.5784417   0.0247091), wk =   0.0005144
        k(  696) = (   0.1669817   0.5784417   0.0494182), wk =   0.0005144
        k(  697) = (   0.1669817   0.5784417   0.0741272), wk =   0.0005144
        k(  698) = (   0.1669817   0.5784417   0.0988363), wk =   0.0005144
        k(  699) = (   0.1669817   0.5784417   0.1235454), wk =   0.0005144
        k(  700) = (   0.1669817   0.5784417  -0.1482545), wk =   0.0002572
        k(  701) = (   0.1948120   0.3374243   0.0000000), wk =   0.0005144
        k(  702) = (   0.1948120   0.3374243   0.0247091), wk =   0.0010288
        k(  703) = (   0.1948120   0.3374243   0.0494182), wk =   0.0010288
        k(  704) = (   0.1948120   0.3374243   0.0741272), wk =   0.0010288
        k(  705) = (   0.1948120   0.3374243   0.0988363), wk =   0.0010288
        k(  706) = (   0.1948120   0.3374243   0.1235454), wk =   0.0010288
        k(  707) = (   0.1948120   0.3374243  -0.1482545), wk =   0.0005144
        k(  708) = (   0.1948120   0.3695600   0.0000000), wk =   0.0005144
        k(  709) = (   0.1948120   0.3695600   0.0247091), wk =   0.0010288
        k(  710) = (   0.1948120   0.3695600   0.0494182), wk =   0.0010288
        k(  711) = (   0.1948120   0.3695600   0.0741272), wk =   0.0010288
        k(  712) = (   0.1948120   0.3695600   0.0988363), wk =   0.0010288
        k(  713) = (   0.1948120   0.3695600   0.1235454), wk =   0.0010288
        k(  714) = (   0.1948120   0.3695600  -0.1482545), wk =   0.0005144
        k(  715) = (   0.1948120   0.4016956   0.0000000), wk =   0.0005144
        k(  716) = (   0.1948120   0.4016956   0.0247091), wk =   0.0010288
        k(  717) = (   0.1948120   0.4016956   0.0494182), wk =   0.0010288
        k(  718) = (   0.1948120   0.4016956   0.0741272), wk =   0.0010288
        k(  719) = (   0.1948120   0.4016956   0.0988363), wk =   0.0010288
        k(  720) = (   0.1948120   0.4016956   0.1235454), wk =   0.0010288
        k(  721) = (   0.1948120   0.4016956  -0.1482545), wk =   0.0005144
        k(  722) = (   0.1948120   0.4338313   0.0000000), wk =   0.0005144
        k(  723) = (   0.1948120   0.4338313   0.0247091), wk =   0.0010288
        k(  724) = (   0.1948120   0.4338313   0.0494182), wk =   0.0010288
        k(  725) = (   0.1948120   0.4338313   0.0741272), wk =   0.0010288
        k(  726) = (   0.1948120   0.4338313   0.0988363), wk =   0.0010288
        k(  727) = (   0.1948120   0.4338313   0.1235454), wk =   0.0010288
        k(  728) = (   0.1948120   0.4338313  -0.1482545), wk =   0.0005144
        k(  729) = (   0.1948120   0.4659669   0.0000000), wk =   0.0005144
        k(  730) = (   0.1948120   0.4659669   0.0247091), wk =   0.0010288
        k(  731) = (   0.1948120   0.4659669   0.0494182), wk =   0.0010288
        k(  732) = (   0.1948120   0.4659669   0.0741272), wk =   0.0010288
        k(  733) = (   0.1948120   0.4659669   0.0988363), wk =   0.0010288
        k(  734) = (   0.1948120   0.4659669   0.1235454), wk =   0.0010288
        k(  735) = (   0.1948120   0.4659669  -0.1482545), wk =   0.0005144
        k(  736) = (   0.1948120   0.4981026   0.0000000), wk =   0.0005144
        k(  737) = (   0.1948120   0.4981026   0.0247091), wk =   0.0010288
        k(  738) = (   0.1948120   0.4981026   0.0494182), wk =   0.0010288
        k(  739) = (   0.1948120   0.4981026   0.0741272), wk =   0.0010288
        k(  740) = (   0.1948120   0.4981026   0.0988363), wk =   0.0010288
        k(  741) = (   0.1948120   0.4981026   0.1235454), wk =   0.0010288
        k(  742) = (   0.1948120   0.4981026  -0.1482545), wk =   0.0005144
        k(  743) = (   0.1948120   0.5302382   0.0000000), wk =   0.0005144
        k(  744) = (   0.1948120   0.5302382   0.0247091), wk =   0.0010288
        k(  745) = (   0.1948120   0.5302382   0.0494182), wk =   0.0010288
        k(  746) = (   0.1948120   0.5302382   0.0741272), wk =   0.0010288
        k(  747) = (   0.1948120   0.5302382   0.0988363), wk =   0.0010288
        k(  748) = (   0.1948120   0.5302382   0.1235454), wk =   0.0010288
        k(  749) = (   0.1948120   0.5302382  -0.1482545), wk =   0.0005144
        k(  750) = (   0.1948120   0.5623739   0.0000000), wk =   0.0005144
        k(  751) = (   0.1948120   0.5623739   0.0247091), wk =   0.0010288
        k(  752) = (   0.1948120   0.5623739   0.0494182), wk =   0.0010288
        k(  753) = (   0.1948120   0.5623739   0.0741272), wk =   0.0010288
        k(  754) = (   0.1948120   0.5623739   0.0988363), wk =   0.0010288
        k(  755) = (   0.1948120   0.5623739   0.1235454), wk =   0.0010288
        k(  756) = (   0.1948120   0.5623739  -0.1482545), wk =   0.0005144
        k(  757) = (   0.2226423   0.3856278   0.0000000), wk =   0.0005144
        k(  758) = (   0.2226423   0.3856278   0.0247091), wk =   0.0010288
        k(  759) = (   0.2226423   0.3856278   0.0494182), wk =   0.0010288
        k(  760) = (   0.2226423   0.3856278   0.0741272), wk =   0.0010288
        k(  761) = (   0.2226423   0.3856278   0.0988363), wk =   0.0010288
        k(  762) = (   0.2226423   0.3856278   0.1235454), wk =   0.0010288
        k(  763) = (   0.2226423   0.3856278  -0.1482545), wk =   0.0005144
        k(  764) = (   0.2226423   0.4177634   0.0000000), wk =   0.0005144
        k(  765) = (   0.2226423   0.4177634   0.0247091), wk =   0.0010288
        k(  766) = (   0.2226423   0.4177634   0.0494182), wk =   0.0010288
        k(  767) = (   0.2226423   0.4177634   0.0741272), wk =   0.0010288
        k(  768) = (   0.2226423   0.4177634   0.0988363), wk =   0.0010288
        k(  769) = (   0.2226423   0.4177634   0.1235454), wk =   0.0010288
        k(  770) = (   0.2226423   0.4177634  -0.1482545), wk =   0.0005144
        k(  771) = (   0.2226423   0.4498991   0.0000000), wk =   0.0005144
        k(  772) = (   0.2226423   0.4498991   0.0247091), wk =   0.0010288
        k(  773) = (   0.2226423   0.4498991   0.0494182), wk =   0.0010288
        k(  774) = (   0.2226423   0.4498991   0.0741272), wk =   0.0010288
        k(  775) = (   0.2226423   0.4498991   0.0988363), wk =   0.0010288
        k(  776) = (   0.2226423   0.4498991   0.1235454), wk =   0.0010288
        k(  777) = (   0.2226423   0.4498991  -0.1482545), wk =   0.0005144
        k(  778) = (   0.2226423   0.4820347   0.0000000), wk =   0.0005144
        k(  779) = (   0.2226423   0.4820347   0.0247091), wk =   0.0010288
        k(  780) = (   0.2226423   0.4820347   0.0494182), wk =   0.0010288
        k(  781) = (   0.2226423   0.4820347   0.0741272), wk =   0.0010288
        k(  782) = (   0.2226423   0.4820347   0.0988363), wk =   0.0010288
        k(  783) = (   0.2226423   0.4820347   0.1235454), wk =   0.0010288
        k(  784) = (   0.2226423   0.4820347  -0.1482545), wk =   0.0005144
        k(  785) = (   0.2226423   0.5141704   0.0000000), wk =   0.0005144
        k(  786) = (   0.2226423   0.5141704   0.0247091), wk =   0.0010288
        k(  787) = (   0.2226423   0.5141704   0.0494182), wk =   0.0010288
        k(  788) = (   0.2226423   0.5141704   0.0741272), wk =   0.0010288
        k(  789) = (   0.2226423   0.5141704   0.0988363), wk =   0.0010288
        k(  790) = (   0.2226423   0.5141704   0.1235454), wk =   0.0010288
        k(  791) = (   0.2226423   0.5141704  -0.1482545), wk =   0.0005144
        k(  792) = (   0.2226423   0.5463060   0.0000000), wk =   0.0005144
        k(  793) = (   0.2226423   0.5463060   0.0247091), wk =   0.0010288
        k(  794) = (   0.2226423   0.5463060   0.0494182), wk =   0.0010288
        k(  795) = (   0.2226423   0.5463060   0.0741272), wk =   0.0010288
        k(  796) = (   0.2226423   0.5463060   0.0988363), wk =   0.0010288
        k(  797) = (   0.2226423   0.5463060   0.1235454), wk =   0.0010288
        k(  798) = (   0.2226423   0.5463060  -0.1482545), wk =   0.0005144
        k(  799) = (   0.2226423   0.5784417   0.0000000), wk =   0.0002572
        k(  800) = (   0.2226423   0.5784417   0.0247091), wk =   0.0005144
        k(  801) = (   0.2226423   0.5784417   0.0494182), wk =   0.0005144
        k(  802) = (   0.2226423   0.5784417   0.0741272), wk =   0.0005144
        k(  803) = (   0.2226423   0.5784417   0.0988363), wk =   0.0005144
        k(  804) = (   0.2226423   0.5784417   0.1235454), wk =   0.0005144
        k(  805) = (   0.2226423   0.5784417  -0.1482545), wk =   0.0002572
        k(  806) = (   0.2504726   0.4338313   0.0000000), wk =   0.0005144
        k(  807) = (   0.2504726   0.4338313   0.0247091), wk =   0.0010288
        k(  808) = (   0.2504726   0.4338313   0.0494182), wk =   0.0010288
        k(  809) = (   0.2504726   0.4338313   0.0741272), wk =   0.0010288
        k(  810) = (   0.2504726   0.4338313   0.0988363), wk =   0.0010288
        k(  811) = (   0.2504726   0.4338313   0.1235454), wk =   0.0010288
        k(  812) = (   0.2504726   0.4338313  -0.1482545), wk =   0.0005144
        k(  813) = (   0.2504726   0.4659669   0.0000000), wk =   0.0005144
        k(  814) = (   0.2504726   0.4659669   0.0247091), wk =   0.0010288
        k(  815) = (   0.2504726   0.4659669   0.0494182), wk =   0.0010288
        k(  816) = (   0.2504726   0.4659669   0.0741272), wk =   0.0010288
        k(  817) = (   0.2504726   0.4659669   0.0988363), wk =   0.0010288
        k(  818) = (   0.2504726   0.4659669   0.1235454), wk =   0.0010288
        k(  819) = (   0.2504726   0.4659669  -0.1482545), wk =   0.0005144
        k(  820) = (   0.2504726   0.4981026   0.0000000), wk =   0.0005144
        k(  821) = (   0.2504726   0.4981026   0.0247091), wk =   0.0010288
        k(  822) = (   0.2504726   0.4981026   0.0494182), wk =   0.0010288
        k(  823) = (   0.2504726   0.4981026   0.0741272), wk =   0.0010288
        k(  824) = (   0.2504726   0.4981026   0.0988363), wk =   0.0010288
        k(  825) = (   0.2504726   0.4981026   0.1235454), wk =   0.0010288
        k(  826) = (   0.2504726   0.4981026  -0.1482545), wk =   0.0005144
        k(  827) = (   0.2504726   0.5302382   0.0000000), wk =   0.0005144
        k(  828) = (   0.2504726   0.5302382   0.0247091), wk =   0.0010288
        k(  829) = (   0.2504726   0.5302382   0.0494182), wk =   0.0010288
        k(  830) = (   0.2504726   0.5302382   0.0741272), wk =   0.0010288
        k(  831) = (   0.2504726   0.5302382   0.0988363), wk =   0.0010288
        k(  832) = (   0.2504726   0.5302382   0.1235454), wk =   0.0010288
        k(  833) = (   0.2504726   0.5302382  -0.1482545), wk =   0.0005144
        k(  834) = (   0.2504726   0.5623739   0.0000000), wk =   0.0005144
        k(  835) = (   0.2504726   0.5623739   0.0247091), wk =   0.0010288
        k(  836) = (   0.2504726   0.5623739   0.0494182), wk =   0.0010288
        k(  837) = (   0.2504726   0.5623739   0.0741272), wk =   0.0010288
        k(  838) = (   0.2504726   0.5623739   0.0988363), wk =   0.0010288
        k(  839) = (   0.2504726   0.5623739   0.1235454), wk =   0.0010288
        k(  840) = (   0.2504726   0.5623739  -0.1482545), wk =   0.0005144
        k(  841) = (   0.2783029   0.4820347   0.0000000), wk =   0.0005144
        k(  842) = (   0.2783029   0.4820347   0.0247091), wk =   0.0010288
        k(  843) = (   0.2783029   0.4820347   0.0494182), wk =   0.0010288
        k(  844) = (   0.2783029   0.4820347   0.0741272), wk =   0.0010288
        k(  845) = (   0.2783029   0.4820347   0.0988363), wk =   0.0010288
        k(  846) = (   0.2783029   0.4820347   0.1235454), wk =   0.0010288
        k(  847) = (   0.2783029   0.4820347  -0.1482545), wk =   0.0005144
        k(  848) = (   0.2783029   0.5141704   0.0000000), wk =   0.0005144
        k(  849) = (   0.2783029   0.5141704   0.0247091), wk =   0.0010288
        k(  850) = (   0.2783029   0.5141704   0.0494182), wk =   0.0010288
        k(  851) = (   0.2783029   0.5141704   0.0741272), wk =   0.0010288
        k(  852) = (   0.2783029   0.5141704   0.0988363), wk =   0.0010288
        k(  853) = (   0.2783029   0.5141704   0.1235454), wk =   0.0010288
        k(  854) = (   0.2783029   0.5141704  -0.1482545), wk =   0.0005144
        k(  855) = (   0.2783029   0.5463060   0.0000000), wk =   0.0005144
        k(  856) = (   0.2783029   0.5463060   0.0247091), wk =   0.0010288
        k(  857) = (   0.2783029   0.5463060   0.0494182), wk =   0.0010288
        k(  858) = (   0.2783029   0.5463060   0.0741272), wk =   0.0010288
        k(  859) = (   0.2783029   0.5463060   0.0988363), wk =   0.0010288
        k(  860) = (   0.2783029   0.5463060   0.1235454), wk =   0.0010288
        k(  861) = (   0.2783029   0.5463060  -0.1482545), wk =   0.0005144
        k(  862) = (   0.2783029   0.5784417   0.0000000), wk =   0.0002572
        k(  863) = (   0.2783029   0.5784417   0.0247091), wk =   0.0005144
        k(  864) = (   0.2783029   0.5784417   0.0494182), wk =   0.0005144
        k(  865) = (   0.2783029   0.5784417   0.0741272), wk =   0.0005144
        k(  866) = (   0.2783029   0.5784417   0.0988363), wk =   0.0005144
        k(  867) = (   0.2783029   0.5784417   0.1235454), wk =   0.0005144
        k(  868) = (   0.2783029   0.5784417  -0.1482545), wk =   0.0002572
        k(  869) = (   0.3061332   0.5302382   0.0000000), wk =   0.0005144
        k(  870) = (   0.3061332   0.5302382   0.0247091), wk =   0.0010288
        k(  871) = (   0.3061332   0.5302382   0.0494182), wk =   0.0010288
        k(  872) = (   0.3061332   0.5302382   0.0741272), wk =   0.0010288
        k(  873) = (   0.3061332   0.5302382   0.0988363), wk =   0.0010288
        k(  874) = (   0.3061332   0.5302382   0.1235454), wk =   0.0010288
        k(  875) = (   0.3061332   0.5302382  -0.1482545), wk =   0.0005144
        k(  876) = (   0.3061332   0.5623739   0.0000000), wk =   0.0005144
        k(  877) = (   0.3061332   0.5623739   0.0247091), wk =   0.0010288
        k(  878) = (   0.3061332   0.5623739   0.0494182), wk =   0.0010288
        k(  879) = (   0.3061332   0.5623739   0.0741272), wk =   0.0010288
        k(  880) = (   0.3061332   0.5623739   0.0988363), wk =   0.0010288
        k(  881) = (   0.3061332   0.5623739   0.1235454), wk =   0.0010288
        k(  882) = (   0.3061332   0.5623739  -0.1482545), wk =   0.0005144
        k(  883) = (   0.3339635   0.5784417   0.0000000), wk =   0.0002572
        k(  884) = (   0.3339635   0.5784417   0.0247091), wk =   0.0005144
        k(  885) = (   0.3339635   0.5784417   0.0494182), wk =   0.0005144
        k(  886) = (   0.3339635   0.5784417   0.0741272), wk =   0.0005144
        k(  887) = (   0.3339635   0.5784417   0.0988363), wk =   0.0005144
        k(  888) = (   0.3339635   0.5784417   0.1235454), wk =   0.0005144
        k(  889) = (   0.3339635   0.5784417  -0.1482545), wk =   0.0002572
        k(  890) = (  -0.0278303  -0.0160678   0.0000000), wk =   0.0005144
        k(  891) = (  -0.0278303  -0.0160678  -0.0247091), wk =   0.0010288
        k(  892) = (  -0.0278303  -0.0160678  -0.0494182), wk =   0.0010288
        k(  893) = (  -0.0278303  -0.0160678  -0.0741272), wk =   0.0010288
        k(  894) = (  -0.0278303  -0.0160678  -0.0988363), wk =   0.0010288
        k(  895) = (  -0.0278303  -0.0160678  -0.1235454), wk =   0.0010288
        k(  896) = (  -0.0278303  -0.0160678   0.1482545), wk =   0.0005144
        k(  897) = (  -0.0556606  -0.0321356   0.0000000), wk =   0.0005144
        k(  898) = (  -0.0556606  -0.0321356  -0.0247091), wk =   0.0010288
        k(  899) = (  -0.0556606  -0.0321356  -0.0494182), wk =   0.0010288
        k(  900) = (  -0.0556606  -0.0321356  -0.0741272), wk =   0.0010288
        k(  901) = (  -0.0556606  -0.0321356  -0.0988363), wk =   0.0010288
        k(  902) = (  -0.0556606  -0.0321356  -0.1235454), wk =   0.0010288
        k(  903) = (  -0.0556606  -0.0321356   0.1482545), wk =   0.0005144
        k(  904) = (  -0.0834909  -0.0482035   0.0000000), wk =   0.0005144
        k(  905) = (  -0.0834909  -0.0482035  -0.0247091), wk =   0.0010288
        k(  906) = (  -0.0834909  -0.0482035  -0.0494182), wk =   0.0010288
        k(  907) = (  -0.0834909  -0.0482035  -0.0741272), wk =   0.0010288
        k(  908) = (  -0.0834909  -0.0482035  -0.0988363), wk =   0.0010288
        k(  909) = (  -0.0834909  -0.0482035  -0.1235454), wk =   0.0010288
        k(  910) = (  -0.0834909  -0.0482035   0.1482545), wk =   0.0005144
        k(  911) = (  -0.1113212  -0.0642713   0.0000000), wk =   0.0005144
        k(  912) = (  -0.1113212  -0.0642713  -0.0247091), wk =   0.0010288
        k(  913) = (  -0.1113212  -0.0642713  -0.0494182), wk =   0.0010288
        k(  914) = (  -0.1113212  -0.0642713  -0.0741272), wk =   0.0010288
        k(  915) = (  -0.1113212  -0.0642713  -0.0988363), wk =   0.0010288
        k(  916) = (  -0.1113212  -0.0642713  -0.1235454), wk =   0.0010288
        k(  917) = (  -0.1113212  -0.0642713   0.1482545), wk =   0.0005144
        k(  918) = (  -0.1391514  -0.0803391   0.0000000), wk =   0.0005144
        k(  919) = (  -0.1391514  -0.0803391  -0.0247091), wk =   0.0010288
        k(  920) = (  -0.1391514  -0.0803391  -0.0494182), wk =   0.0010288
        k(  921) = (  -0.1391514  -0.0803391  -0.0741272), wk =   0.0010288
        k(  922) = (  -0.1391514  -0.0803391  -0.0988363), wk =   0.0010288
        k(  923) = (  -0.1391514  -0.0803391  -0.1235454), wk =   0.0010288
        k(  924) = (  -0.1391514  -0.0803391   0.1482545), wk =   0.0005144
        k(  925) = (  -0.1669817  -0.0964069   0.0000000), wk =   0.0005144
        k(  926) = (  -0.1669817  -0.0964069  -0.0247091), wk =   0.0010288
        k(  927) = (  -0.1669817  -0.0964069  -0.0494182), wk =   0.0010288
        k(  928) = (  -0.1669817  -0.0964069  -0.0741272), wk =   0.0010288
        k(  929) = (  -0.1669817  -0.0964069  -0.0988363), wk =   0.0010288
        k(  930) = (  -0.1669817  -0.0964069  -0.1235454), wk =   0.0010288
        k(  931) = (  -0.1669817  -0.0964069   0.1482545), wk =   0.0005144
        k(  932) = (  -0.1948120  -0.1124748   0.0000000), wk =   0.0005144
        k(  933) = (  -0.1948120  -0.1124748  -0.0247091), wk =   0.0010288
        k(  934) = (  -0.1948120  -0.1124748  -0.0494182), wk =   0.0010288
        k(  935) = (  -0.1948120  -0.1124748  -0.0741272), wk =   0.0010288
        k(  936) = (  -0.1948120  -0.1124748  -0.0988363), wk =   0.0010288
        k(  937) = (  -0.1948120  -0.1124748  -0.1235454), wk =   0.0010288
        k(  938) = (  -0.1948120  -0.1124748   0.1482545), wk =   0.0005144
        k(  939) = (  -0.2226423  -0.1285426   0.0000000), wk =   0.0005144
        k(  940) = (  -0.2226423  -0.1285426  -0.0247091), wk =   0.0010288
        k(  941) = (  -0.2226423  -0.1285426  -0.0494182), wk =   0.0010288
        k(  942) = (  -0.2226423  -0.1285426  -0.0741272), wk =   0.0010288
        k(  943) = (  -0.2226423  -0.1285426  -0.0988363), wk =   0.0010288
        k(  944) = (  -0.2226423  -0.1285426  -0.1235454), wk =   0.0010288
        k(  945) = (  -0.2226423  -0.1285426   0.1482545), wk =   0.0005144
        k(  946) = (  -0.2504726  -0.1446104   0.0000000), wk =   0.0005144
        k(  947) = (  -0.2504726  -0.1446104  -0.0247091), wk =   0.0010288
[...]
     5.6715   5.7582  15.4439  15.5245

     occupation numbers 
     1.0000   1.0000   1.0000   1.0000   1.0000   1.0000   1.0277   1.0352
    -0.0350  -0.0346  -0.0000  -0.0000

          k =-0.3340-0.5142-0.0988 (  1532 PWs)   bands (ev):

    -8.5535  -8.5430  -7.2980  -7.2916  -5.3055  -5.3005   3.8764   3.9902
     5.6834   5.7447  15.3873  15.4282

     occupation numbers 
     1.0000   1.0000   1.0000   1.0000   1.0000   1.0000   1.0292   1.0347
    -0.0353  -0.0350  -0.0000  -0.0000

          k = 0.6123-0.0321-0.0988 (  1532 PWs)   bands (ev):

    -8.5534  -8.5429  -7.2983  -7.2919  -5.3053  -5.3004   3.8767   3.9904
     5.6831   5.7444  15.3873  15.4283

     occupation numbers 
     1.0000   1.0000   1.0000   1.0000   1.0000   1.0000   1.0292   1.0347
    -0.0353  -0.0350  -0.0000  -0.0000

          k =-0.3340-0.5142-0.1235 (  1539 PWs)   bands (ev):

    -8.5510  -8.5455  -7.2965  -7.2932  -5.3043  -5.3017   3.9041   3.9630
     5.6973   5.7291  15.3505  15.3675

     occupation numbers 
     1.0000   1.0000   1.0000   1.0000   1.0000   1.0000   1.0309   1.0338
    -0.0354  -0.0353  -0.0000  -0.0000

          k = 0.6123-0.0321-0.1235 (  1539 PWs)   bands (ev):

    -8.5509  -8.5455  -7.2967  -7.2934  -5.3041  -5.3016   3.9043   3.9632
     5.6970   5.7287  15.3506  15.3676

     occupation numbers 
     1.0000   1.0000   1.0000   1.0000   1.0000   1.0000   1.0309   1.0338
    -0.0354  -0.0353  -0.0000  -0.0000

          k =-0.3340-0.5142 0.1483 (  1536 PWs)   bands (ev):

    -8.5482  -8.5482  -7.2949  -7.2949  -5.3030  -5.3030   3.9336   3.9336
     5.7129   5.7129  15.3423  15.3423

     occupation numbers 
     1.0000   1.0000   1.0000   1.0000   1.0000   1.0000   1.0325   1.0325
    -0.0354  -0.0354  -0.0000  -0.0000

          k = 0.6123-0.0321 0.1483 (  1536 PWs)   bands (ev):

    -8.5482  -8.5482  -7.2951  -7.2951  -5.3029  -5.3029   3.9339   3.9339
     5.7126   5.7126  15.3425  15.3425

     occupation numbers 
     1.0000   1.0000   1.0000   1.0000   1.0000   1.0000   1.0325   1.0325
    -0.0354  -0.0354  -0.0000  -0.0000

          k =-0.3618-0.5302 0.0000 (  1523 PWs)   bands (ev):

    -8.2876  -8.2748  -7.5529  -7.5504  -5.3577  -5.3471   4.0373   4.1988
     5.5013   5.5566  15.5947  15.8052

     occupation numbers 
     1.0000   1.0000   1.0000   1.0000   1.0000   1.0000   1.0355   1.0241
    -0.0153  -0.0257  -0.0000  -0.0000

          k =-0.3618-0.5302-0.0247 (  1522 PWs)   bands (ev):

    -8.2873  -8.2750  -7.5529  -7.5504  -5.3575  -5.3473   4.0405   4.1965
     5.5017   5.5550  15.5722  15.7577

     occupation numbers 
     1.0000   1.0000   1.0000   1.0000   1.0000   1.0000   1.0355   1.0245
    -0.0154  -0.0254  -0.0000  -0.0000

          k =-0.3618-0.5302-0.0494 (  1522 PWs)   bands (ev):

    -8.2867  -8.2756  -7.5528  -7.5505  -5.3570  -5.3479   4.0495   4.1896
     5.5030   5.5505  15.5159  15.6508

     occupation numbers 
     1.0000   1.0000   1.0000   1.0000   1.0000   1.0000   1.0354   1.0256
    -0.0157  -0.0247  -0.0000  -0.0000

          k =-0.3618-0.5302-0.0741 (  1531 PWs)   bands (ev):

    -8.2857  -8.2766  -7.5526  -7.5508  -5.3562  -5.3487   4.0637   4.1783
     5.5052   5.5438  15.4489  15.5361

     occupation numbers 
     1.0000   1.0000   1.0000   1.0000   1.0000   1.0000   1.0353   1.0272
    -0.0162  -0.0236  -0.0000  -0.0000

          k =-0.3618-0.5302-0.0988 (  1536 PWs)   bands (ev):

    -8.2843  -8.2779  -7.5524  -7.5511  -5.3551  -5.3498   4.0818   4.1630
     5.5088   5.5357  15.3910  15.4413

     occupation numbers 
     1.0000   1.0000   1.0000   1.0000   1.0000   1.0000   1.0348   1.0291
    -0.0170  -0.0223  -0.0000  -0.0000

          k =-0.3618-0.5302-0.1235 (  1538 PWs)   bands (ev):

    -8.2828  -8.2795  -7.5521  -7.5514  -5.3538  -5.3511   4.1025   4.1445
     5.5136   5.5275  15.3553  15.3779

     occupation numbers 
     1.0000   1.0000   1.0000   1.0000   1.0000   1.0000   1.0340   1.0310
    -0.0180  -0.0208  -0.0000  -0.0000

          k =-0.3618-0.5302 0.1483 (  1542 PWs)   bands (ev):

    -8.2811  -8.2811  -7.5518  -7.5518  -5.3525  -5.3525   4.1239   4.1239
     5.5200   5.5200  15.3495  15.3495

     occupation numbers 
     1.0000   1.0000   1.0000   1.0000   1.0000   1.0000   1.0327   1.0327
    -0.0193  -0.0193  -0.0000  -0.0000

          k = 0.6123 0.0000 0.0000 (  1525 PWs)   bands (ev):

    -8.5544  -8.5322  -7.1764  -7.1654  -5.4673  -5.4611   3.8688   4.1187
     5.5956   5.7476  15.5207  15.8348

     occupation numbers 
     1.0000   1.0000   1.0000   1.0000   1.0000   1.0000   1.0287   1.0330
    -0.0305  -0.0349  -0.0000  -0.0000

          k = 0.6123 0.0000-0.0247 (  1529 PWs)   bands (ev):

    -8.5540  -8.5326  -7.1762  -7.1655  -5.4672  -5.4612   3.8730   4.1144
     5.5980   5.7448  15.5028  15.7450

     occupation numbers 
     1.0000   1.0000   1.0000   1.0000   1.0000   1.0000   1.0290   1.0333
    -0.0307  -0.0350  -0.0000  -0.0000

          k = 0.6123 0.0000-0.0494 (  1524 PWs)   bands (ev):

    -8.5529  -8.5337  -7.1757  -7.1661  -5.4669  -5.4615   3.8854   4.1019
     5.6052   5.7368  15.4561  15.6004

     occupation numbers 
     1.0000   1.0000   1.0000   1.0000   1.0000   1.0000   1.0298   1.0340
    -0.0314  -0.0352  -0.0000  -0.0000

          k = 0.6123 0.0000-0.0741 (  1526 PWs)   bands (ev):

    -8.5512  -8.5355  -7.1748  -7.1670  -5.4664  -5.4620   3.9052   4.0820
     5.6167   5.7240  15.3970  15.4736

     occupation numbers 
     1.0000   1.0000   1.0000   1.0000   1.0000   1.0000   1.0309   1.0348
    -0.0323  -0.0354  -0.0000  -0.0000

          k = 0.6123 0.0000-0.0988 (  1530 PWs)   bands (ev):

    -8.5489  -8.5378  -7.1736  -7.1681  -5.4658  -5.4627   3.9309   4.0560
     5.6318   5.7076  15.3424  15.3790

     occupation numbers 
     1.0000   1.0000   1.0000   1.0000   1.0000   1.0000   1.0323   1.0354
    -0.0333  -0.0355  -0.0000  -0.0000

          k = 0.6123 0.0000-0.1235 (  1538 PWs)   bands (ev):

    -8.5462  -8.5405  -7.1723  -7.1695  -5.4651  -5.4635   3.9610   4.0258
     5.6496   5.6888  15.3059  15.3200

     occupation numbers 
     1.0000   1.0000   1.0000   1.0000   1.0000   1.0000   1.0337   1.0354
    -0.0343  -0.0354  -0.0000  -0.0000

          k = 0.6123 0.0000 0.1483 (  1546 PWs)   bands (ev):

    -8.5434  -8.5434  -7.1709  -7.1709  -5.4643  -5.4643   3.9934   3.9934
     5.6690   5.6690  15.2965  15.2965

     occupation numbers 
     1.0000   1.0000   1.0000   1.0000   1.0000   1.0000   1.0348   1.0348
    -0.0350  -0.0350  -0.0000  -0.0000

          k =-0.3340-0.5463 0.0000 (  1523 PWs)   bands (ev):

    -8.1401  -8.1231  -7.5001  -7.4901  -5.6302  -5.6243   4.2870   4.4769
     5.2211   5.3546  15.5200  15.6655

     occupation numbers 
     1.0000   1.0000   1.0000   1.0000   1.0000   1.0000   1.0041   0.9118
     0.1234   0.0373  -0.0000  -0.0000

          k = 0.6401-0.0161 0.0000 (  1523 PWs)   bands (ev):

    -8.1400  -8.1230  -7.5004  -7.4904  -5.6300  -5.6241   4.2873   4.4771
     5.2209   5.3542  15.5200  15.6655

     occupation numbers 
     1.0000   1.0000   1.0000   1.0000   1.0000   1.0000   1.0040   0.9116
     0.1236   0.0375  -0.0000  -0.0000

          k =-0.3340-0.5463-0.0247 (  1524 PWs)   bands (ev):

    -8.1398  -8.1234  -7.5000  -7.4903  -5.6301  -5.6244   4.2906   4.4741
     5.2229   5.3518  15.4991  15.6276

     occupation numbers 
     1.0000   1.0000   1.0000   1.0000   1.0000   1.0000   1.0030   0.9137
     0.1220   0.0387  -0.0000  -0.0000

          k = 0.6401-0.0161-0.0247 (  1524 PWs)   bands (ev):

    -8.1397  -8.1233  -7.5002  -7.4906  -5.6299  -5.6242   4.2909   4.4743
     5.2226   5.3514  15.4991  15.6277

     occupation numbers 
     1.0000   1.0000   1.0000   1.0000   1.0000   1.0000   1.0029   0.9135
     0.1222   0.0389  -0.0000  -0.0000

          k =-0.3340-0.5463-0.0494 (  1524 PWs)   bands (ev):

    -8.1390  -8.1243  -7.4995  -7.4908  -5.6298  -5.6247   4.3010   4.4657
     5.2282   5.3436  15.4458  15.5389

     occupation numbers 
     1.0000   1.0000   1.0000   1.0000   1.0000   1.0000   0.9997   0.9193
     0.1178   0.0429  -0.0000  -0.0000

          k = 0.6401-0.0161-0.0494 (  1524 PWs)   bands (ev):

    -8.1388  -8.1241  -7.4997  -7.4911  -5.6297  -5.6245   4.3012   4.4659
     5.2280   5.3432  15.4458  15.5389

     occupation numbers 
     1.0000   1.0000   1.0000   1.0000   1.0000   1.0000   0.9996   0.9191
     0.1180   0.0431  -0.0000  -0.0000

          k =-0.3340-0.5463-0.0741 (  1524 PWs)   bands (ev):

    -8.1376  -8.1256  -7.4987  -7.4916  -5.6293  -5.6252   4.3173   4.4521
     5.2369   5.3309  15.3803  15.4394

     occupation numbers 
     1.0000   1.0000   1.0000   1.0000   1.0000   1.0000   0.9942   0.9281
     0.1112   0.0497  -0.0000  -0.0000

          k = 0.6401-0.0161-0.0741 (  1524 PWs)   bands (ev):

    -8.1374  -8.1255  -7.4989  -7.4919  -5.6292  -5.6250   4.3176   4.4523
     5.2367   5.3305  15.3803  15.4395

     occupation numbers 
     1.0000   1.0000   1.0000   1.0000   1.0000   1.0000   0.9941   0.9280
     0.1114   0.0500  -0.0000  -0.0000

          k =-0.3340-0.5463-0.0988 (  1537 PWs)   bands (ev):

    -8.1359  -8.1274  -7.4977  -7.4927  -5.6287  -5.6258   4.3383   4.4337
     5.2488   5.3151  15.3217  15.3551

     occupation numbers 
     1.0000   1.0000   1.0000   1.0000   1.0000   1.0000   0.9863   0.9393
     0.1024   0.0588  -0.0000  -0.0000

          k = 0.6401-0.0161-0.0988 (  1537 PWs)   bands (ev):

    -8.1357  -8.1272  -7.4979  -7.4929  -5.6286  -5.6257   4.3385   4.4340
     5.2485   5.3147  15.3217  15.3552

     occupation numbers 
     1.0000   1.0000   1.0000   1.0000   1.0000   1.0000   0.9862   0.9392
     0.1026   0.0590  -0.0000  -0.0000

          k =-0.3340-0.5463-0.1235 (  1544 PWs)   bands (ev):

    -8.1338  -8.1294  -7.4965  -7.4939  -5.6281  -5.6265   4.3622   4.4117
     5.2633   5.2976  15.2838  15.2986

     occupation numbers 
     1.0000   1.0000   1.0000   1.0000   1.0000   1.0000   0.9763   0.9519
     0.0920   0.0693  -0.0000  -0.0000

          k = 0.6401-0.0161-0.1235 (  1544 PWs)   bands (ev):

    -8.1337  -8.1293  -7.4968  -7.4942  -5.6279  -5.6264   4.3625   4.4120
     5.2630   5.2973  15.2838  15.2987

     occupation numbers 
     1.0000   1.0000   1.0000   1.0000   1.0000   1.0000   0.9762   0.9517
     0.0922   0.0695  -0.0000  -0.0000

          k =-0.3340-0.5463 0.1483 (  1548 PWs)   bands (ev):

    -8.1316  -8.1316  -7.4952  -7.4952  -5.6273  -5.6273   4.3873   4.3873
     5.2799   5.2799  15.2748  15.2748

     occupation numbers 
     1.0000   1.0000   1.0000   1.0000   1.0000   1.0000   0.9645   0.9645
     0.0807   0.0807  -0.0000  -0.0000

          k = 0.6401-0.0161 0.1483 (  1548 PWs)   bands (ev):

    -8.1315  -8.1315  -7.4955  -7.4955  -5.6272  -5.6272   4.3876   4.3876
     5.2796   5.2796  15.2748  15.2748

     occupation numbers 
     1.0000   1.0000   1.0000   1.0000   1.0000   1.0000   0.9644   0.9644
     0.0809   0.0809  -0.0000  -0.0000

     the Fermi energy is     4.8728 ev

!    total energy              =     -49.71426145 Ry
     estimated scf accuracy    <          2.3E-10 Ry
     smearing contrib. (-TS)   =       0.00094857 Ry
     internal energy E=F+TS    =     -49.71521002 Ry

     The total energy is F=E-TS. E is the sum of the following terms:
     one-electron contribution =     -30.04879938 Ry
     hartree contribution      =      21.82752583 Ry
     xc contribution           =     -18.55488913 Ry
     ewald contribution        =     -22.93904734 Ry

     convergence has been achieved in   7 iterations

     Forces acting on atoms (cartesian axes, Ry/au):

     atom    1 type  1   force =    -0.00000000    0.00011387    0.00000000
     atom    2 type  1   force =     0.00000000   -0.00011387    0.00000000
     atom    3 type  1   force =     0.00000000   -0.00011314    0.00000000
     atom    4 type  1   force =     0.00000000    0.00011314    0.00000000
     The non-local contrib.  to forces
     atom    1 type  1   force =    -0.00000000    0.00010081    0.00000000
     atom    2 type  1   force =     0.00000000   -0.00010081    0.00000000
     atom    3 type  1   force =     0.00000000   -0.00010057    0.00000000
     atom    4 type  1   force =     0.00000000    0.00010057    0.00000000
     The ionic contribution  to forces
     atom    1 type  1   force =     0.00000000    0.00037531   -0.00000000
     atom    2 type  1   force =    -0.00000000   -0.00037531    0.00000000
     atom    3 type  1   force =    -0.00000000   -0.00037532    0.00000000
     atom    4 type  1   force =    -0.00000000    0.00037532    0.00000000
     The local contribution  to forces
     atom    1 type  1   force =     0.00000000   -0.00035963    0.00000000
     atom    2 type  1   force =    -0.00000000    0.00035963   -0.00000000
     atom    3 type  1   force =    -0.00000000    0.00035934    0.00000000
     atom    4 type  1   force =     0.00000000   -0.00035934   -0.00000000
     The core correction contribution to forces
     atom    1 type  1   force =     0.00000000   -0.00000272    0.00000000
     atom    2 type  1   force =     0.00000000    0.00000272   -0.00000000
     atom    3 type  1   force =     0.00000000    0.00000350   -0.00000000
     atom    4 type  1   force =    -0.00000000   -0.00000350   -0.00000000
     The Hubbard contrib.    to forces
     atom    1 type  1   force =     0.00000000    0.00000000    0.00000000
     atom    2 type  1   force =     0.00000000    0.00000000    0.00000000
     atom    3 type  1   force =     0.00000000    0.00000000    0.00000000
     atom    4 type  1   force =     0.00000000    0.00000000    0.00000000
     The SCF correction term to forces
     atom    1 type  1   force =     0.00000000    0.00000011   -0.00000000
     atom    2 type  1   force =    -0.00000000   -0.00000011   -0.00000000
     atom    3 type  1   force =    -0.00000000   -0.00000008   -0.00000000
     atom    4 type  1   force =     0.00000000    0.00000008   -0.00000000

     Total force =     0.000227     Total SCF correction =     0.000000


     Computing stress (Cartesian axis) and pressure

          total   stress  (Ry/bohr**3)                   (kbar)     P=       -0.29
  -0.00000308  -0.00000000   0.00000000           -0.45       -0.00        0.00
  -0.00000000  -0.00000368   0.00000000           -0.00       -0.54        0.00
   0.00000000   0.00000000   0.00000077            0.00        0.00        0.11

     kinetic stress (kbar)   9321.54     -0.00      0.00
                               -0.00   9321.80      0.00
                                0.00      0.00  10580.37

     local   stress (kbar) -26993.58     -0.00      0.00
                               -0.00 -26991.90     -0.00
                                0.00     -0.00  27339.13

     nonloc. stress (kbar)   1809.16      0.00      0.00
                                0.00   1809.10      0.00
                                0.00      0.00   1661.45

     hartree stress (kbar)  10023.79     -0.00     -0.00
                               -0.00  10023.55      0.00
                               -0.00      0.00  -9195.78

     exc-cor stress (kbar)   -167.73      0.00     -0.00
                                0.00   -167.74      0.00
                               -0.00      0.00   -273.09

     corecor stress (kbar)  -2245.20      0.00     -0.00
                                0.00  -2245.19      0.00
                               -0.00     -0.00  -2206.39

     ewald   stress (kbar)   8251.58      0.00     -0.00
                                0.00   8249.84      0.00
                               -0.00      0.00 -27905.58

     hubbard stress (kbar)      0.00      0.00      0.00
                                0.00      0.00      0.00
                                0.00      0.00      0.00

     DFT-D   stress (kbar)      0.00      0.00      0.00
                                0.00      0.00      0.00
                                0.00      0.00      0.00

     XDM     stress (kbar)      0.00      0.00      0.00
                                0.00      0.00      0.00
                                0.00      0.00      0.00

     dft-nl  stress (kbar)      0.00      0.00      0.00
                                0.00      0.00      0.00
                                0.00      0.00      0.00

     TS-vdW  stress (kbar)      0.00      0.00      0.00
                                0.00      0.00      0.00
                                0.00      0.00      0.00



     Writing output data file ./tmp/C_k36.save/

     init_run     :    174.13s CPU    183.15s WALL (       1 calls)
     electrons    :   2457.23s CPU   2557.81s WALL (       1 calls)
     forces       :     36.73s CPU     38.06s WALL (       1 calls)
     stress       :    143.78s CPU    146.75s WALL (       1 calls)

     Called by init_run:
     wfcinit      :    170.42s CPU    179.24s WALL (       1 calls)
     wfcinit:atom :      5.14s CPU      5.35s WALL (    2401 calls)
     wfcinit:wfcr :    132.64s CPU    140.04s WALL (    2401 calls)
     potinit      :      0.50s CPU      0.54s WALL (       1 calls)
     hinit0       :      1.12s CPU      1.16s WALL (       1 calls)

     Called by electrons:
     c_bands      :   2092.56s CPU   2178.11s WALL (       7 calls)
     sum_band     :    360.69s CPU    375.58s WALL (       7 calls)
     v_of_rho     :      2.94s CPU      3.04s WALL (       8 calls)
     v_h          :      0.14s CPU      0.15s WALL (       8 calls)
     v_xc         :      3.50s CPU      3.62s WALL (      10 calls)
     newd         :      0.75s CPU      0.82s WALL (       8 calls)
     mix_rho      :      0.26s CPU      0.27s WALL (       7 calls)

     Called by c_bands:
     init_us_2    :    100.60s CPU    105.03s WALL (   40817 calls)
     cegterg      :   1961.68s CPU   2041.70s WALL (   16807 calls)

     Called by sum_band:
     sum_band:wei :      2.35s CPU      2.41s WALL (       7 calls)
     sum_band:loo :    356.66s CPU    371.41s WALL (       7 calls)
     sum_band:buf :      3.59s CPU      3.77s WALL (   16807 calls)
     sum_band:ini :     41.71s CPU     43.36s WALL (   16807 calls)
     sum_band:cal :     33.33s CPU     34.60s WALL (   16807 calls)
     sum_band:bec :      1.23s CPU      1.29s WALL (   16807 calls)
     addusdens    :      0.87s CPU      0.96s WALL (       7 calls)
     addusd:skk   :      0.02s CPU      0.02s WALL (       7 calls)
     addusd:dgemm :      0.18s CPU      0.24s WALL (       7 calls)
     addusd:qvan2 :      0.39s CPU      0.41s WALL (       7 calls)

     Called by *egterg:
     cdiaghg      :     74.32s CPU     77.59s WALL (   74098 calls)
     cegterg:over :     99.61s CPU    103.82s WALL (   57291 calls)
     cegterg:upda :     64.72s CPU     67.45s WALL (   57291 calls)
     cegterg:last :    104.69s CPU    108.29s WALL (   36872 calls)
     h_psi        :   1574.16s CPU   1642.40s WALL (   76499 calls)
     s_psi        :     92.85s CPU     96.88s WALL (   76499 calls)
     g_psi        :     16.02s CPU     16.85s WALL (   57291 calls)

     Called by h_psi:
     h_psi:calbec :    106.64s CPU    110.99s WALL (   76499 calls)
     vloc_psi     :   1350.53s CPU   1409.04s WALL (   76499 calls)
     add_vuspsi   :    102.53s CPU    107.35s WALL (   76499 calls)

     General routines
     calbec       :    160.77s CPU    167.97s WALL (  105311 calls)
     fft          :      2.02s CPU      2.06s WALL (     127 calls)
     ffts         :      0.03s CPU      0.03s WALL (      15 calls)
     fftw         :   1285.80s CPU   1344.50s WALL ( 1367262 calls)
     interpolate  :      0.15s CPU      0.16s WALL (       8 calls)

     Parallel routines

     PWSCF        :  46m59.69s CPU  49m 2.20s WALL


   This run was terminated on:   0:59:40  27May2022            

=------------------------------------------------------------------------------=
   JOB DONE.
=------------------------------------------------------------------------------=
