
     Program PWSCF v.6.7MaX starts on 26May2022 at 22:47:13 

     This program is part of the open-source Quantum ESPRESSO suite
     for quantum simulation of materials; please cite
         "P. Giannozzi et al., J. Phys.:Condens. Matter 21 395502 (2009);
         "P. Giannozzi et al., J. Phys.:Condens. Matter 29 465901 (2017);
          URL http://www.quantum-espresso.org", 
     in publications or presentations arising from this work. More details at
     http://www.quantum-espresso.org/quote

     Parallel version (MPI), running on     1 processors

     MPI processes distributed on     1 nodes
     Waiting for input...
     Reading input from standard input

     Current dimensions of program PWSCF are:
     Max number of different atomic species (ntypx) = 10
     Max number of k-points (npk) =  40000
     Max angular momentum in pseudopotentials (lmaxx) =  3

     Subspace diagonalization in iterative solution of the eigenvalue problem:
     a serial algorithm will be used

     Message from routine setup:
     using ibrav=0 with symmetry is DISCOURAGED, use correct ibrav instead

     G-vector sticks info
     --------------------
     sticks:   dense  smooth     PW     G-vecs:    dense   smooth      PW
     Sum         547     265     85                34133    11995    2223



     bravais-lattice index     =            0
     lattice parameter (alat)  =       4.6676  a.u.
     unit-cell volume          =     295.8966 (a.u.)^3
     number of atoms/cell      =            4
     number of atomic types    =            1
     number of electrons       =        16.00
     number of Kohn-Sham states=           12
     kinetic-energy cutoff     =      45.0000  Ry
     charge density cutoff     =     360.0000  Ry
     scf convergence threshold =      1.0E-09
     mixing beta               =       0.7000
     number of iterations used =            8  plain     mixing
     Exchange-correlation= PBE
                           (   1   4   3   4   0   0   0)

     celldm(1)=   4.667624  celldm(2)=   0.000000  celldm(3)=   0.000000
     celldm(4)=   0.000000  celldm(5)=   0.000000  celldm(6)=   0.000000

     crystal axes: (cart. coord. in units of alat)
               a(1) = (   0.998113   0.000000   0.000000 )  
               a(2) = (  -0.499057   0.864391   0.000000 )  
               a(3) = (   0.000000   0.000000   3.372580 )  

     reciprocal axes: (cart. coord. in units 2 pi/alat)
               b(1) = (  1.001890  0.578442 -0.000000 )  
               b(2) = (  0.000000  1.156883  0.000000 )  
               b(3) = (  0.000000 -0.000000  0.296509 )  


     PseudoPot. # 1 for C  read from file:
     /home/max/Desktop/graphite_DFT/Pseudo/C.pbe-n-rrkjus_psl.1.0.0.UPF
     MD5 check sum: 1fdd950c42eb37d8afe3dd2f8d12311e
     Pseudo is Ultrasoft + core correction, Zval =  4.0
     Generated using &quot;atomic&quot; code by A. Dal Corso  v.6.3MaX
     Using radial grid of 1073 points,  4 beta functions with: 
                l(1) =   0
                l(2) =   0
                l(3) =   1
                l(4) =   1
     Q(r) pseudized with 0 coefficients 


     atomic species   valence    mass     pseudopotential
        C              4.00    12.01100     C ( 1.00)

      8 Sym. Ops., with inversion, found ( 4 have fractional translation)


                                    s                        frac. trans.

      isym =  1     identity                                     

 cryst.   s( 1) = (     1          0          0      )
                  (     0          1          0      )
                  (     0          0          1      )

 cart.    s( 1) = (  1.0000000  0.0000000  0.0000000 )
                  (  0.0000000  1.0000000  0.0000000 )
                  (  0.0000000  0.0000000  1.0000000 )


      isym =  2     180 deg rotation - cart. axis [0,0,1]        

 cryst.   s( 2) = (    -1          0          0      )    f =(  0.0000000 )
                  (     0         -1          0      )       (  0.0000000 )
                  (     0          0          1      )       ( -0.5000000 )

 cart.    s( 2) = ( -1.0000000  0.0000000  0.0000000 )    f =(  0.0000000 )
                  (  0.0000000 -1.0000000  0.0000000 )       (  0.0000000 )
                  (  0.0000000  0.0000000  1.0000000 )       ( -1.6862899 )


      isym =  3     180 deg rotation - cart. axis [0,1,0]        

 cryst.   s( 3) = (    -1          0          0      )    f =(  0.0000000 )
                  (     1          1          0      )       (  0.0000000 )
                  (     0          0         -1      )       (  0.5000000 )

 cart.    s( 3) = ( -1.0000000  0.0000000  0.0000000 )    f =(  0.0000000 )
                  (  0.0000000  1.0000000  0.0000000 )       (  0.0000000 )
                  (  0.0000000  0.0000000 -1.0000000 )       (  1.6862899 )


      isym =  4     180 deg rotation - cart. axis [1,0,0]        

 cryst.   s( 4) = (     1          0          0      )
                  (    -1         -1          0      )
                  (     0          0         -1      )

 cart.    s( 4) = (  1.0000000  0.0000000  0.0000000 )
                  (  0.0000000 -1.0000000  0.0000000 )
                  (  0.0000000  0.0000000 -1.0000000 )


      isym =  5     inversion                                    

 cryst.   s( 5) = (    -1          0          0      )
                  (     0         -1          0      )
                  (     0          0         -1      )

 cart.    s( 5) = ( -1.0000000  0.0000000  0.0000000 )
                  (  0.0000000 -1.0000000  0.0000000 )
                  (  0.0000000  0.0000000 -1.0000000 )


      isym =  6     inv. 180 deg rotation - cart. axis [0,0,1]   

 cryst.   s( 6) = (     1          0          0      )    f =(  0.0000000 )
                  (     0          1          0      )       (  0.0000000 )
                  (     0          0         -1      )       (  0.5000000 )

 cart.    s( 6) = (  1.0000000  0.0000000  0.0000000 )    f =(  0.0000000 )
                  (  0.0000000  1.0000000  0.0000000 )       (  0.0000000 )
                  (  0.0000000  0.0000000 -1.0000000 )       (  1.6862899 )


      isym =  7     inv. 180 deg rotation - cart. axis [0,1,0]   

 cryst.   s( 7) = (     1          0          0      )    f =(  0.0000000 )
                  (    -1         -1          0      )       (  0.0000000 )
                  (     0          0          1      )       ( -0.5000000 )

 cart.    s( 7) = (  1.0000000  0.0000000  0.0000000 )    f =(  0.0000000 )
                  (  0.0000000 -1.0000000  0.0000000 )       (  0.0000000 )
                  (  0.0000000  0.0000000  1.0000000 )       ( -1.6862899 )


      isym =  8     inv. 180 deg rotation - cart. axis [1,0,0]   

 cryst.   s( 8) = (    -1          0          0      )
                  (     1          1          0      )
                  (     0          0          1      )

 cart.    s( 8) = ( -1.0000000  0.0000000  0.0000000 )
                  (  0.0000000  1.0000000  0.0000000 )
                  (  0.0000000  0.0000000  1.0000000 )


   Cartesian axes

     site n.     atom                  positions (alat units)
         1           C   tau(   1) = (   0.0000000  -0.0000396   0.8431450  )
         2           C   tau(   2) = (   0.0000000   0.0000396   2.5294349  )
         3           C   tau(   3) = (   0.0000000   0.5762433   0.8431450  )
         4           C   tau(   4) = (   0.4990566   0.2881481   2.5294349  )

   Crystallographic axes

     site n.     atom                  positions (cryst. coord.)
         1           C   tau(   1) = ( -0.0000229 -0.0000458  0.2500000  )
         2           C   tau(   2) = (  0.0000229  0.0000458  0.7500000  )
         3           C   tau(   3) = (  0.3333231  0.6666463  0.2500000  )
         4           C   tau(   4) = (  0.6666769  0.3333537  0.7500000  )

     number of k points=   785  Methfessel-Paxton smearing, width (Ry)=  0.0500
                       cart. coord. in units 2pi/alat
        k(    1) = (   0.0000000   0.0000000   0.0000000), wk =   0.0004340
        k(    2) = (   0.0000000   0.0000000   0.0370636), wk =   0.0008681
        k(    3) = (   0.0000000   0.0000000   0.0741272), wk =   0.0008681
        k(    4) = (   0.0000000   0.0000000   0.1111908), wk =   0.0008681
        k(    5) = (   0.0000000   0.0000000  -0.1482545), wk =   0.0004340
        k(    6) = (   0.0000000   0.0482035   0.0000000), wk =   0.0008681
        k(    7) = (   0.0000000   0.0482035   0.0370636), wk =   0.0017361
        k(    8) = (   0.0000000   0.0482035   0.0741272), wk =   0.0017361
        k(    9) = (   0.0000000   0.0482035   0.1111908), wk =   0.0017361
        k(   10) = (   0.0000000   0.0482035  -0.1482545), wk =   0.0008681
        k(   11) = (   0.0000000   0.0964069   0.0000000), wk =   0.0008681
        k(   12) = (   0.0000000   0.0964069   0.0370636), wk =   0.0017361
        k(   13) = (   0.0000000   0.0964069   0.0741272), wk =   0.0017361
        k(   14) = (   0.0000000   0.0964069   0.1111908), wk =   0.0017361
        k(   15) = (   0.0000000   0.0964069  -0.1482545), wk =   0.0008681
        k(   16) = (   0.0000000   0.1446104   0.0000000), wk =   0.0008681
        k(   17) = (   0.0000000   0.1446104   0.0370636), wk =   0.0017361
        k(   18) = (   0.0000000   0.1446104   0.0741272), wk =   0.0017361
        k(   19) = (   0.0000000   0.1446104   0.1111908), wk =   0.0017361
        k(   20) = (   0.0000000   0.1446104  -0.1482545), wk =   0.0008681
        k(   21) = (   0.0000000   0.1928139   0.0000000), wk =   0.0008681
        k(   22) = (   0.0000000   0.1928139   0.0370636), wk =   0.0017361
        k(   23) = (   0.0000000   0.1928139   0.0741272), wk =   0.0017361
        k(   24) = (   0.0000000   0.1928139   0.1111908), wk =   0.0017361
        k(   25) = (   0.0000000   0.1928139  -0.1482545), wk =   0.0008681
        k(   26) = (   0.0000000   0.2410174   0.0000000), wk =   0.0008681
        k(   27) = (   0.0000000   0.2410174   0.0370636), wk =   0.0017361
        k(   28) = (   0.0000000   0.2410174   0.0741272), wk =   0.0017361
        k(   29) = (   0.0000000   0.2410174   0.1111908), wk =   0.0017361
        k(   30) = (   0.0000000   0.2410174  -0.1482545), wk =   0.0008681
        k(   31) = (   0.0000000   0.2892208   0.0000000), wk =   0.0008681
        k(   32) = (   0.0000000   0.2892208   0.0370636), wk =   0.0017361
        k(   33) = (   0.0000000   0.2892208   0.0741272), wk =   0.0017361
        k(   34) = (   0.0000000   0.2892208   0.1111908), wk =   0.0017361
        k(   35) = (   0.0000000   0.2892208  -0.1482545), wk =   0.0008681
        k(   36) = (   0.0000000   0.3374243   0.0000000), wk =   0.0008681
        k(   37) = (   0.0000000   0.3374243   0.0370636), wk =   0.0017361
        k(   38) = (   0.0000000   0.3374243   0.0741272), wk =   0.0017361
        k(   39) = (   0.0000000   0.3374243   0.1111908), wk =   0.0017361
        k(   40) = (   0.0000000   0.3374243  -0.1482545), wk =   0.0008681
        k(   41) = (   0.0000000   0.3856278   0.0000000), wk =   0.0008681
        k(   42) = (   0.0000000   0.3856278   0.0370636), wk =   0.0017361
        k(   43) = (   0.0000000   0.3856278   0.0741272), wk =   0.0017361
        k(   44) = (   0.0000000   0.3856278   0.1111908), wk =   0.0017361
        k(   45) = (   0.0000000   0.3856278  -0.1482545), wk =   0.0008681
        k(   46) = (   0.0000000   0.4338313   0.0000000), wk =   0.0008681
        k(   47) = (   0.0000000   0.4338313   0.0370636), wk =   0.0017361
        k(   48) = (   0.0000000   0.4338313   0.0741272), wk =   0.0017361
        k(   49) = (   0.0000000   0.4338313   0.1111908), wk =   0.0017361
        k(   50) = (   0.0000000   0.4338313  -0.1482545), wk =   0.0008681
        k(   51) = (   0.0000000   0.4820347   0.0000000), wk =   0.0008681
        k(   52) = (   0.0000000   0.4820347   0.0370636), wk =   0.0017361
        k(   53) = (   0.0000000   0.4820347   0.0741272), wk =   0.0017361
        k(   54) = (   0.0000000   0.4820347   0.1111908), wk =   0.0017361
        k(   55) = (   0.0000000   0.4820347  -0.1482545), wk =   0.0008681
        k(   56) = (   0.0000000   0.5302382   0.0000000), wk =   0.0008681
        k(   57) = (   0.0000000   0.5302382   0.0370636), wk =   0.0017361
        k(   58) = (   0.0000000   0.5302382   0.0741272), wk =   0.0017361
        k(   59) = (   0.0000000   0.5302382   0.1111908), wk =   0.0017361
        k(   60) = (   0.0000000   0.5302382  -0.1482545), wk =   0.0008681
        k(   61) = (   0.0000000  -0.5784417   0.0000000), wk =   0.0004340
        k(   62) = (   0.0000000  -0.5784417   0.0370636), wk =   0.0008681
        k(   63) = (   0.0000000  -0.5784417   0.0741272), wk =   0.0008681
        k(   64) = (   0.0000000  -0.5784417   0.1111908), wk =   0.0008681
        k(   65) = (   0.0000000  -0.5784417  -0.1482545), wk =   0.0004340
        k(   66) = (   0.0417454   0.0723052   0.0000000), wk =   0.0017361
        k(   67) = (   0.0417454   0.0723052   0.0370636), wk =   0.0034722
        k(   68) = (   0.0417454   0.0723052   0.0741272), wk =   0.0034722
        k(   69) = (   0.0417454   0.0723052   0.1111908), wk =   0.0034722
        k(   70) = (   0.0417454   0.0723052  -0.1482545), wk =   0.0017361
        k(   71) = (   0.0417454   0.1205087   0.0000000), wk =   0.0017361
        k(   72) = (   0.0417454   0.1205087   0.0370636), wk =   0.0034722
        k(   73) = (   0.0417454   0.1205087   0.0741272), wk =   0.0034722
        k(   74) = (   0.0417454   0.1205087   0.1111908), wk =   0.0034722
        k(   75) = (   0.0417454   0.1205087  -0.1482545), wk =   0.0017361
        k(   76) = (   0.0417454   0.1687122   0.0000000), wk =   0.0017361
        k(   77) = (   0.0417454   0.1687122   0.0370636), wk =   0.0034722
        k(   78) = (   0.0417454   0.1687122   0.0741272), wk =   0.0034722
        k(   79) = (   0.0417454   0.1687122   0.1111908), wk =   0.0034722
        k(   80) = (   0.0417454   0.1687122  -0.1482545), wk =   0.0017361
        k(   81) = (   0.0417454   0.2169156   0.0000000), wk =   0.0017361
        k(   82) = (   0.0417454   0.2169156   0.0370636), wk =   0.0034722
        k(   83) = (   0.0417454   0.2169156   0.0741272), wk =   0.0034722
        k(   84) = (   0.0417454   0.2169156   0.1111908), wk =   0.0034722
        k(   85) = (   0.0417454   0.2169156  -0.1482545), wk =   0.0017361
        k(   86) = (   0.0417454   0.2651191   0.0000000), wk =   0.0017361
        k(   87) = (   0.0417454   0.2651191   0.0370636), wk =   0.0034722
        k(   88) = (   0.0417454   0.2651191   0.0741272), wk =   0.0034722
        k(   89) = (   0.0417454   0.2651191   0.1111908), wk =   0.0034722
        k(   90) = (   0.0417454   0.2651191  -0.1482545), wk =   0.0017361
        k(   91) = (   0.0417454   0.3133226   0.0000000), wk =   0.0017361
        k(   92) = (   0.0417454   0.3133226   0.0370636), wk =   0.0034722
        k(   93) = (   0.0417454   0.3133226   0.0741272), wk =   0.0034722
        k(   94) = (   0.0417454   0.3133226   0.1111908), wk =   0.0034722
        k(   95) = (   0.0417454   0.3133226  -0.1482545), wk =   0.0017361
        k(   96) = (   0.0417454   0.3615261   0.0000000), wk =   0.0017361
        k(   97) = (   0.0417454   0.3615261   0.0370636), wk =   0.0034722
        k(   98) = (   0.0417454   0.3615261   0.0741272), wk =   0.0034722
        k(   99) = (   0.0417454   0.3615261   0.1111908), wk =   0.0034722
        k(  100) = (   0.0417454   0.3615261  -0.1482545), wk =   0.0017361
        k(  101) = (   0.0417454   0.4097295   0.0000000), wk =   0.0017361
        k(  102) = (   0.0417454   0.4097295   0.0370636), wk =   0.0034722
        k(  103) = (   0.0417454   0.4097295   0.0741272), wk =   0.0034722
        k(  104) = (   0.0417454   0.4097295   0.1111908), wk =   0.0034722
        k(  105) = (   0.0417454   0.4097295  -0.1482545), wk =   0.0017361
        k(  106) = (   0.0417454   0.4579330   0.0000000), wk =   0.0017361
        k(  107) = (   0.0417454   0.4579330   0.0370636), wk =   0.0034722
        k(  108) = (   0.0417454   0.4579330   0.0741272), wk =   0.0034722
        k(  109) = (   0.0417454   0.4579330   0.1111908), wk =   0.0034722
        k(  110) = (   0.0417454   0.4579330  -0.1482545), wk =   0.0017361
        k(  111) = (   0.0417454   0.5061365   0.0000000), wk =   0.0017361
        k(  112) = (   0.0417454   0.5061365   0.0370636), wk =   0.0034722
        k(  113) = (   0.0417454   0.5061365   0.0741272), wk =   0.0034722
        k(  114) = (   0.0417454   0.5061365   0.1111908), wk =   0.0034722
        k(  115) = (   0.0417454   0.5061365  -0.1482545), wk =   0.0017361
        k(  116) = (   0.0417454   0.5543399   0.0000000), wk =   0.0017361
        k(  117) = (   0.0417454   0.5543399   0.0370636), wk =   0.0034722
        k(  118) = (   0.0417454   0.5543399   0.0741272), wk =   0.0034722
        k(  119) = (   0.0417454   0.5543399   0.1111908), wk =   0.0034722
        k(  120) = (   0.0417454   0.5543399  -0.1482545), wk =   0.0017361
        k(  121) = (   0.0834909   0.1446104   0.0000000), wk =   0.0017361
        k(  122) = (   0.0834909   0.1446104   0.0370636), wk =   0.0034722
        k(  123) = (   0.0834909   0.1446104   0.0741272), wk =   0.0034722
        k(  124) = (   0.0834909   0.1446104   0.1111908), wk =   0.0034722
        k(  125) = (   0.0834909   0.1446104  -0.1482545), wk =   0.0017361
        k(  126) = (   0.0834909   0.1928139   0.0000000), wk =   0.0017361
        k(  127) = (   0.0834909   0.1928139   0.0370636), wk =   0.0034722
        k(  128) = (   0.0834909   0.1928139   0.0741272), wk =   0.0034722
        k(  129) = (   0.0834909   0.1928139   0.1111908), wk =   0.0034722
        k(  130) = (   0.0834909   0.1928139  -0.1482545), wk =   0.0017361
        k(  131) = (   0.0834909   0.2410174   0.0000000), wk =   0.0017361
        k(  132) = (   0.0834909   0.2410174   0.0370636), wk =   0.0034722
        k(  133) = (   0.0834909   0.2410174   0.0741272), wk =   0.0034722
        k(  134) = (   0.0834909   0.2410174   0.1111908), wk =   0.0034722
        k(  135) = (   0.0834909   0.2410174  -0.1482545), wk =   0.0017361
        k(  136) = (   0.0834909   0.2892208   0.0000000), wk =   0.0017361
        k(  137) = (   0.0834909   0.2892208   0.0370636), wk =   0.0034722
        k(  138) = (   0.0834909   0.2892208   0.0741272), wk =   0.0034722
        k(  139) = (   0.0834909   0.2892208   0.1111908), wk =   0.0034722
        k(  140) = (   0.0834909   0.2892208  -0.1482545), wk =   0.0017361
        k(  141) = (   0.0834909   0.3374243   0.0000000), wk =   0.0017361
        k(  142) = (   0.0834909   0.3374243   0.0370636), wk =   0.0034722
        k(  143) = (   0.0834909   0.3374243   0.0741272), wk =   0.0034722
        k(  144) = (   0.0834909   0.3374243   0.1111908), wk =   0.0034722
        k(  145) = (   0.0834909   0.3374243  -0.1482545), wk =   0.0017361
        k(  146) = (   0.0834909   0.3856278   0.0000000), wk =   0.0017361
        k(  147) = (   0.0834909   0.3856278   0.0370636), wk =   0.0034722
        k(  148) = (   0.0834909   0.3856278   0.0741272), wk =   0.0034722
        k(  149) = (   0.0834909   0.3856278   0.1111908), wk =   0.0034722
        k(  150) = (   0.0834909   0.3856278  -0.1482545), wk =   0.0017361
        k(  151) = (   0.0834909   0.4338313   0.0000000), wk =   0.0017361
        k(  152) = (   0.0834909   0.4338313   0.0370636), wk =   0.0034722
        k(  153) = (   0.0834909   0.4338313   0.0741272), wk =   0.0034722
        k(  154) = (   0.0834909   0.4338313   0.1111908), wk =   0.0034722
        k(  155) = (   0.0834909   0.4338313  -0.1482545), wk =   0.0017361
        k(  156) = (   0.0834909   0.4820347   0.0000000), wk =   0.0017361
        k(  157) = (   0.0834909   0.4820347   0.0370636), wk =   0.0034722
        k(  158) = (   0.0834909   0.4820347   0.0741272), wk =   0.0034722
        k(  159) = (   0.0834909   0.4820347   0.1111908), wk =   0.0034722
        k(  160) = (   0.0834909   0.4820347  -0.1482545), wk =   0.0017361
        k(  161) = (   0.0834909   0.5302382   0.0000000), wk =   0.0017361
        k(  162) = (   0.0834909   0.5302382   0.0370636), wk =   0.0034722
        k(  163) = (   0.0834909   0.5302382   0.0741272), wk =   0.0034722
        k(  164) = (   0.0834909   0.5302382   0.1111908), wk =   0.0034722
        k(  165) = (   0.0834909   0.5302382  -0.1482545), wk =   0.0017361
        k(  166) = (   0.0834909   0.5784417   0.0000000), wk =   0.0008681
        k(  167) = (   0.0834909   0.5784417   0.0370636), wk =   0.0017361
        k(  168) = (   0.0834909   0.5784417   0.0741272), wk =   0.0017361
        k(  169) = (   0.0834909   0.5784417   0.1111908), wk =   0.0017361
        k(  170) = (   0.0834909   0.5784417  -0.1482545), wk =   0.0008681
        k(  171) = (   0.1252363   0.2169156   0.0000000), wk =   0.0017361
        k(  172) = (   0.1252363   0.2169156   0.0370636), wk =   0.0034722
        k(  173) = (   0.1252363   0.2169156   0.0741272), wk =   0.0034722
        k(  174) = (   0.1252363   0.2169156   0.1111908), wk =   0.0034722
        k(  175) = (   0.1252363   0.2169156  -0.1482545), wk =   0.0017361
        k(  176) = (   0.1252363   0.2651191   0.0000000), wk =   0.0017361
        k(  177) = (   0.1252363   0.2651191   0.0370636), wk =   0.0034722
        k(  178) = (   0.1252363   0.2651191   0.0741272), wk =   0.0034722
        k(  179) = (   0.1252363   0.2651191   0.1111908), wk =   0.0034722
        k(  180) = (   0.1252363   0.2651191  -0.1482545), wk =   0.0017361
        k(  181) = (   0.1252363   0.3133226   0.0000000), wk =   0.0017361
        k(  182) = (   0.1252363   0.3133226   0.0370636), wk =   0.0034722
        k(  183) = (   0.1252363   0.3133226   0.0741272), wk =   0.0034722
        k(  184) = (   0.1252363   0.3133226   0.1111908), wk =   0.0034722
        k(  185) = (   0.1252363   0.3133226  -0.1482545), wk =   0.0017361
        k(  186) = (   0.1252363   0.3615261   0.0000000), wk =   0.0017361
        k(  187) = (   0.1252363   0.3615261   0.0370636), wk =   0.0034722
        k(  188) = (   0.1252363   0.3615261   0.0741272), wk =   0.0034722
        k(  189) = (   0.1252363   0.3615261   0.1111908), wk =   0.0034722
        k(  190) = (   0.1252363   0.3615261  -0.1482545), wk =   0.0017361
        k(  191) = (   0.1252363   0.4097295   0.0000000), wk =   0.0017361
        k(  192) = (   0.1252363   0.4097295   0.0370636), wk =   0.0034722
        k(  193) = (   0.1252363   0.4097295   0.0741272), wk =   0.0034722
        k(  194) = (   0.1252363   0.4097295   0.1111908), wk =   0.0034722
        k(  195) = (   0.1252363   0.4097295  -0.1482545), wk =   0.0017361
        k(  196) = (   0.1252363   0.4579330   0.0000000), wk =   0.0017361
        k(  197) = (   0.1252363   0.4579330   0.0370636), wk =   0.0034722
        k(  198) = (   0.1252363   0.4579330   0.0741272), wk =   0.0034722
        k(  199) = (   0.1252363   0.4579330   0.1111908), wk =   0.0034722
        k(  200) = (   0.1252363   0.4579330  -0.1482545), wk =   0.0017361
        k(  201) = (   0.1252363   0.5061365   0.0000000), wk =   0.0017361
        k(  202) = (   0.1252363   0.5061365   0.0370636), wk =   0.0034722
        k(  203) = (   0.1252363   0.5061365   0.0741272), wk =   0.0034722
        k(  204) = (   0.1252363   0.5061365   0.1111908), wk =   0.0034722
        k(  205) = (   0.1252363   0.5061365  -0.1482545), wk =   0.0017361
        k(  206) = (   0.1252363   0.5543399   0.0000000), wk =   0.0017361
        k(  207) = (   0.1252363   0.5543399   0.0370636), wk =   0.0034722
        k(  208) = (   0.1252363   0.5543399   0.0741272), wk =   0.0034722
        k(  209) = (   0.1252363   0.5543399   0.1111908), wk =   0.0034722
        k(  210) = (   0.1252363   0.5543399  -0.1482545), wk =   0.0017361
        k(  211) = (   0.1669817   0.2892208   0.0000000), wk =   0.0017361
        k(  212) = (   0.1669817   0.2892208   0.0370636), wk =   0.0034722
        k(  213) = (   0.1669817   0.2892208   0.0741272), wk =   0.0034722
        k(  214) = (   0.1669817   0.2892208   0.1111908), wk =   0.0034722
        k(  215) = (   0.1669817   0.2892208  -0.1482545), wk =   0.0017361
        k(  216) = (   0.1669817   0.3374243   0.0000000), wk =   0.0017361
        k(  217) = (   0.1669817   0.3374243   0.0370636), wk =   0.0034722
        k(  218) = (   0.1669817   0.3374243   0.0741272), wk =   0.0034722
        k(  219) = (   0.1669817   0.3374243   0.1111908), wk =   0.0034722
        k(  220) = (   0.1669817   0.3374243  -0.1482545), wk =   0.0017361
        k(  221) = (   0.1669817   0.3856278   0.0000000), wk =   0.0017361
        k(  222) = (   0.1669817   0.3856278   0.0370636), wk =   0.0034722
        k(  223) = (   0.1669817   0.3856278   0.0741272), wk =   0.0034722
        k(  224) = (   0.1669817   0.3856278   0.1111908), wk =   0.0034722
        k(  225) = (   0.1669817   0.3856278  -0.1482545), wk =   0.0017361
        k(  226) = (   0.1669817   0.4338313   0.0000000), wk =   0.0017361
        k(  227) = (   0.1669817   0.4338313   0.0370636), wk =   0.0034722
        k(  228) = (   0.1669817   0.4338313   0.0741272), wk =   0.0034722
        k(  229) = (   0.1669817   0.4338313   0.1111908), wk =   0.0034722
        k(  230) = (   0.1669817   0.4338313  -0.1482545), wk =   0.0017361
        k(  231) = (   0.1669817   0.4820347   0.0000000), wk =   0.0017361
        k(  232) = (   0.1669817   0.4820347   0.0370636), wk =   0.0034722
        k(  233) = (   0.1669817   0.4820347   0.0741272), wk =   0.0034722
        k(  234) = (   0.1669817   0.4820347   0.1111908), wk =   0.0034722
        k(  235) = (   0.1669817   0.4820347  -0.1482545), wk =   0.0017361
        k(  236) = (   0.1669817   0.5302382   0.0000000), wk =   0.0017361
        k(  237) = (   0.1669817   0.5302382   0.0370636), wk =   0.0034722
        k(  238) = (   0.1669817   0.5302382   0.0741272), wk =   0.0034722
        k(  239) = (   0.1669817   0.5302382   0.1111908), wk =   0.0034722
        k(  240) = (   0.1669817   0.5302382  -0.1482545), wk =   0.0017361
        k(  241) = (   0.1669817   0.5784417   0.0000000), wk =   0.0008681
        k(  242) = (   0.1669817   0.5784417   0.0370636), wk =   0.0017361
        k(  243) = (   0.1669817   0.5784417   0.0741272), wk =   0.0017361
        k(  244) = (   0.1669817   0.5784417   0.1111908), wk =   0.0017361
        k(  245) = (   0.1669817   0.5784417  -0.1482545), wk =   0.0008681
        k(  246) = (   0.2087272   0.3615261   0.0000000), wk =   0.0017361
        k(  247) = (   0.2087272   0.3615261   0.0370636), wk =   0.0034722
        k(  248) = (   0.2087272   0.3615261   0.0741272), wk =   0.0034722
        k(  249) = (   0.2087272   0.3615261   0.1111908), wk =   0.0034722
        k(  250) = (   0.2087272   0.3615261  -0.1482545), wk =   0.0017361
        k(  251) = (   0.2087272   0.4097295   0.0000000), wk =   0.0017361
        k(  252) = (   0.2087272   0.4097295   0.0370636), wk =   0.0034722
        k(  253) = (   0.2087272   0.4097295   0.0741272), wk =   0.0034722
        k(  254) = (   0.2087272   0.4097295   0.1111908), wk =   0.0034722
        k(  255) = (   0.2087272   0.4097295  -0.1482545), wk =   0.0017361
        k(  256) = (   0.2087272   0.4579330   0.0000000), wk =   0.0017361
        k(  257) = (   0.2087272   0.4579330   0.0370636), wk =   0.0034722
        k(  258) = (   0.2087272   0.4579330   0.0741272), wk =   0.0034722
        k(  259) = (   0.2087272   0.4579330   0.1111908), wk =   0.0034722
        k(  260) = (   0.2087272   0.4579330  -0.1482545), wk =   0.0017361
        k(  261) = (   0.2087272   0.5061365   0.0000000), wk =   0.0017361
        k(  262) = (   0.2087272   0.5061365   0.0370636), wk =   0.0034722
        k(  263) = (   0.2087272   0.5061365   0.0741272), wk =   0.0034722
        k(  264) = (   0.2087272   0.5061365   0.1111908), wk =   0.0034722
        k(  265) = (   0.2087272   0.5061365  -0.1482545), wk =   0.0017361
        k(  266) = (   0.2087272   0.5543399   0.0000000), wk =   0.0017361
        k(  267) = (   0.2087272   0.5543399   0.0370636), wk =   0.0034722
        k(  268) = (   0.2087272   0.5543399   0.0741272), wk =   0.0034722
        k(  269) = (   0.2087272   0.5543399   0.1111908), wk =   0.0034722
        k(  270) = (   0.2087272   0.5543399  -0.1482545), wk =   0.0017361
        k(  271) = (   0.2504726   0.4338313   0.0000000), wk =   0.0017361
        k(  272) = (   0.2504726   0.4338313   0.0370636), wk =   0.0034722
        k(  273) = (   0.2504726   0.4338313   0.0741272), wk =   0.0034722
        k(  274) = (   0.2504726   0.4338313   0.1111908), wk =   0.0034722
        k(  275) = (   0.2504726   0.4338313  -0.1482545), wk =   0.0017361
        k(  276) = (   0.2504726   0.4820347   0.0000000), wk =   0.0017361
        k(  277) = (   0.2504726   0.4820347   0.0370636), wk =   0.0034722
        k(  278) = (   0.2504726   0.4820347   0.0741272), wk =   0.0034722
        k(  279) = (   0.2504726   0.4820347   0.1111908), wk =   0.0034722
        k(  280) = (   0.2504726   0.4820347  -0.1482545), wk =   0.0017361
        k(  281) = (   0.2504726   0.5302382   0.0000000), wk =   0.0017361
        k(  282) = (   0.2504726   0.5302382   0.0370636), wk =   0.0034722
        k(  283) = (   0.2504726   0.5302382   0.0741272), wk =   0.0034722
        k(  284) = (   0.2504726   0.5302382   0.1111908), wk =   0.0034722
        k(  285) = (   0.2504726   0.5302382  -0.1482545), wk =   0.0017361
        k(  286) = (   0.2504726   0.5784417   0.0000000), wk =   0.0008681
        k(  287) = (   0.2504726   0.5784417   0.0370636), wk =   0.0017361
        k(  288) = (   0.2504726   0.5784417   0.0741272), wk =   0.0017361
        k(  289) = (   0.2504726   0.5784417   0.1111908), wk =   0.0017361
        k(  290) = (   0.2504726   0.5784417  -0.1482545), wk =   0.0008681
        k(  291) = (   0.2922180   0.5061365   0.0000000), wk =   0.0017361
        k(  292) = (   0.2922180   0.5061365   0.0370636), wk =   0.0034722
        k(  293) = (   0.2922180   0.5061365   0.0741272), wk =   0.0034722
        k(  294) = (   0.2922180   0.5061365   0.1111908), wk =   0.0034722
        k(  295) = (   0.2922180   0.5061365  -0.1482545), wk =   0.0017361
        k(  296) = (   0.2922180   0.5543399   0.0000000), wk =   0.0017361
        k(  297) = (   0.2922180   0.5543399   0.0370636), wk =   0.0034722
        k(  298) = (   0.2922180   0.5543399   0.0741272), wk =   0.0034722
        k(  299) = (   0.2922180   0.5543399   0.1111908), wk =   0.0034722
        k(  300) = (   0.2922180   0.5543399  -0.1482545), wk =   0.0017361
        k(  301) = (   0.3339635   0.5784417   0.0000000), wk =   0.0008681
        k(  302) = (   0.3339635   0.5784417   0.0370636), wk =   0.0017361
        k(  303) = (   0.3339635   0.5784417   0.0741272), wk =   0.0017361
        k(  304) = (   0.3339635   0.5784417   0.1111908), wk =   0.0017361
        k(  305) = (   0.3339635   0.5784417  -0.1482545), wk =   0.0008681
        k(  306) = (  -0.0417454  -0.0241017   0.0000000), wk =   0.0017361
        k(  307) = (  -0.0417454  -0.0241017  -0.0370636), wk =   0.0034722
        k(  308) = (  -0.0417454  -0.0241017  -0.0741272), wk =   0.0034722
        k(  309) = (  -0.0417454  -0.0241017  -0.1111908), wk =   0.0034722
        k(  310) = (  -0.0417454  -0.0241017   0.1482545), wk =   0.0017361
        k(  311) = (  -0.0834909  -0.0482035   0.0000000), wk =   0.0017361
        k(  312) = (  -0.0834909  -0.0482035  -0.0370636), wk =   0.0034722
        k(  313) = (  -0.0834909  -0.0482035  -0.0741272), wk =   0.0034722
        k(  314) = (  -0.0834909  -0.0482035  -0.1111908), wk =   0.0034722
        k(  315) = (  -0.0834909  -0.0482035   0.1482545), wk =   0.0017361
        k(  316) = (  -0.1252363  -0.0723052   0.0000000), wk =   0.0017361
        k(  317) = (  -0.1252363  -0.0723052  -0.0370636), wk =   0.0034722
        k(  318) = (  -0.1252363  -0.0723052  -0.0741272), wk =   0.0034722
        k(  319) = (  -0.1252363  -0.0723052  -0.1111908), wk =   0.0034722
        k(  320) = (  -0.1252363  -0.0723052   0.1482545), wk =   0.0017361
        k(  321) = (  -0.1669817  -0.0964069   0.0000000), wk =   0.0017361
        k(  322) = (  -0.1669817  -0.0964069  -0.0370636), wk =   0.0034722
        k(  323) = (  -0.1669817  -0.0964069  -0.0741272), wk =   0.0034722
        k(  324) = (  -0.1669817  -0.0964069  -0.1111908), wk =   0.0034722
        k(  325) = (  -0.1669817  -0.0964069   0.1482545), wk =   0.0017361
        k(  326) = (  -0.2087272  -0.1205087   0.0000000), wk =   0.0017361
        k(  327) = (  -0.2087272  -0.1205087  -0.0370636), wk =   0.0034722
        k(  328) = (  -0.2087272  -0.1205087  -0.0741272), wk =   0.0034722
        k(  329) = (  -0.2087272  -0.1205087  -0.1111908), wk =   0.0034722
        k(  330) = (  -0.2087272  -0.1205087   0.1482545), wk =   0.0017361
        k(  331) = (  -0.2504726  -0.1446104   0.0000000), wk =   0.0017361
        k(  332) = (  -0.2504726  -0.1446104  -0.0370636), wk =   0.0034722
        k(  333) = (  -0.2504726  -0.1446104  -0.0741272), wk =   0.0034722
        k(  334) = (  -0.2504726  -0.1446104  -0.1111908), wk =   0.0034722
        k(  335) = (  -0.2504726  -0.1446104   0.1482545), wk =   0.0017361
        k(  336) = (  -0.2922180  -0.1687122   0.0000000), wk =   0.0017361
        k(  337) = (  -0.2922180  -0.1687122  -0.0370636), wk =   0.0034722
        k(  338) = (  -0.2922180  -0.1687122  -0.0741272), wk =   0.0034722
        k(  339) = (  -0.2922180  -0.1687122  -0.1111908), wk =   0.0034722
        k(  340) = (  -0.2922180  -0.1687122   0.1482545), wk =   0.0017361
        k(  341) = (  -0.3339635  -0.1928139   0.0000000), wk =   0.0017361
        k(  342) = (  -0.3339635  -0.1928139  -0.0370636), wk =   0.0034722
        k(  343) = (  -0.3339635  -0.1928139  -0.0741272), wk =   0.0034722
        k(  344) = (  -0.3339635  -0.1928139  -0.1111908), wk =   0.0034722
        k(  345) = (  -0.3339635  -0.1928139   0.1482545), wk =   0.0017361
        k(  346) = (  -0.3757089  -0.2169156   0.0000000), wk =   0.0017361
        k(  347) = (  -0.3757089  -0.2169156  -0.0370636), wk =   0.0034722
        k(  348) = (  -0.3757089  -0.2169156  -0.0741272), wk =   0.0034722
        k(  349) = (  -0.3757089  -0.2169156  -0.1111908), wk =   0.0034722
        k(  350) = (  -0.3757089  -0.2169156   0.1482545), wk =   0.0017361
        k(  351) = (  -0.4174543  -0.2410174   0.0000000), wk =   0.0017361
        k(  352) = (  -0.4174543  -0.2410174  -0.0370636), wk =   0.0034722
        k(  353) = (  -0.4174543  -0.2410174  -0.0741272), wk =   0.0034722
        k(  354) = (  -0.4174543  -0.2410174  -0.1111908), wk =   0.0034722
        k(  355) = (  -0.4174543  -0.2410174   0.1482545), wk =   0.0017361
        k(  356) = (  -0.4591998  -0.2651191   0.0000000), wk =   0.0017361
        k(  357) = (  -0.4591998  -0.2651191  -0.0370636), wk =   0.0034722
        k(  358) = (  -0.4591998  -0.2651191  -0.0741272), wk =   0.0034722
        k(  359) = (  -0.4591998  -0.2651191  -0.1111908), wk =   0.0034722
        k(  360) = (  -0.4591998  -0.2651191   0.1482545), wk =   0.0017361
        k(  361) = (   0.5009452   0.2892208   0.0000000), wk =   0.0008681
        k(  362) = (   0.5009452   0.2892208  -0.0370636), wk =   0.0017361
        k(  363) = (   0.5009452   0.2892208  -0.0741272), wk =   0.0017361
        k(  364) = (   0.5009452   0.2892208  -0.1111908), wk =   0.0017361
        k(  365) = (   0.5009452   0.2892208   0.1482545), wk =   0.0008681
        k(  366) = (   0.0834909  -0.0000000   0.0000000), wk =   0.0008681
        k(  367) = (   0.0834909  -0.0000000  -0.0370636), wk =   0.0017361
        k(  368) = (   0.0834909  -0.0000000  -0.0741272), wk =   0.0017361
        k(  369) = (   0.0834909  -0.0000000  -0.1111908), wk =   0.0017361
        k(  370) = (   0.0834909  -0.0000000   0.1482545), wk =   0.0008681
        k(  371) = (  -0.0834909  -0.0964069   0.0000000), wk =   0.0017361
        k(  372) = (   0.1252363  -0.0241017   0.0000000), wk =   0.0017361
        k(  373) = (  -0.0834909  -0.0964069  -0.0370636), wk =   0.0034722
        k(  374) = (   0.1252363  -0.0241017  -0.0370636), wk =   0.0034722
        k(  375) = (  -0.0834909  -0.0964069  -0.0741272), wk =   0.0034722
        k(  376) = (   0.1252363  -0.0241017  -0.0741272), wk =   0.0034722
        k(  377) = (  -0.0834909  -0.0964069  -0.1111908), wk =   0.0034722
        k(  378) = (   0.1252363  -0.0241017  -0.1111908), wk =   0.0034722
        k(  379) = (  -0.0834909  -0.0964069   0.1482545), wk =   0.0017361
        k(  380) = (   0.1252363  -0.0241017   0.1482545), wk =   0.0017361
        k(  381) = (  -0.1252363  -0.1205087   0.0000000), wk =   0.0017361
        k(  382) = (   0.1669817  -0.0482035   0.0000000), wk =   0.0017361
        k(  383) = (  -0.1252363  -0.1205087  -0.0370636), wk =   0.0034722
        k(  384) = (   0.1669817  -0.0482035  -0.0370636), wk =   0.0034722
        k(  385) = (  -0.1252363  -0.1205087  -0.0741272), wk =   0.0034722
        k(  386) = (   0.1669817  -0.0482035  -0.0741272), wk =   0.0034722
        k(  387) = (  -0.1252363  -0.1205087  -0.1111908), wk =   0.0034722
        k(  388) = (   0.1669817  -0.0482035  -0.1111908), wk =   0.0034722
        k(  389) = (  -0.1252363  -0.1205087   0.1482545), wk =   0.0017361
        k(  390) = (   0.1669817  -0.0482035   0.1482545), wk =   0.0017361
        k(  391) = (  -0.1669817  -0.1446104   0.0000000), wk =   0.0017361
        k(  392) = (   0.2087272  -0.0723052   0.0000000), wk =   0.0017361
        k(  393) = (  -0.1669817  -0.1446104  -0.0370636), wk =   0.0034722
        k(  394) = (   0.2087272  -0.0723052  -0.0370636), wk =   0.0034722
        k(  395) = (  -0.1669817  -0.1446104  -0.0741272), wk =   0.0034722
        k(  396) = (   0.2087272  -0.0723052  -0.0741272), wk =   0.0034722
        k(  397) = (  -0.1669817  -0.1446104  -0.1111908), wk =   0.0034722
        k(  398) = (   0.2087272  -0.0723052  -0.1111908), wk =   0.0034722
        k(  399) = (  -0.1669817  -0.1446104   0.1482545), wk =   0.0017361
        k(  400) = (   0.2087272  -0.0723052   0.1482545), wk =   0.0017361
        k(  401) = (  -0.2087272  -0.1687122   0.0000000), wk =   0.0017361
        k(  402) = (   0.2504726  -0.0964069   0.0000000), wk =   0.0017361
        k(  403) = (  -0.2087272  -0.1687122  -0.0370636), wk =   0.0034722
        k(  404) = (   0.2504726  -0.0964069  -0.0370636), wk =   0.0034722
        k(  405) = (  -0.2087272  -0.1687122  -0.0741272), wk =   0.0034722
        k(  406) = (   0.2504726  -0.0964069  -0.0741272), wk =   0.0034722
        k(  407) = (  -0.2087272  -0.1687122  -0.1111908), wk =   0.0034722
        k(  408) = (   0.2504726  -0.0964069  -0.1111908), wk =   0.0034722
        k(  409) = (  -0.2087272  -0.1687122   0.1482545), wk =   0.0017361
        k(  410) = (   0.2504726  -0.0964069   0.1482545), wk =   0.0017361
        k(  411) = (  -0.2504726  -0.1928139   0.0000000), wk =   0.0017361
        k(  412) = (   0.2922180  -0.1205087   0.0000000), wk =   0.0017361
        k(  413) = (  -0.2504726  -0.1928139  -0.0370636), wk =   0.0034722
        k(  414) = (   0.2922180  -0.1205087  -0.0370636), wk =   0.0034722
        k(  415) = (  -0.2504726  -0.1928139  -0.0741272), wk =   0.0034722
        k(  416) = (   0.2922180  -0.1205087  -0.0741272), wk =   0.0034722
        k(  417) = (  -0.2504726  -0.1928139  -0.1111908), wk =   0.0034722
        k(  418) = (   0.2922180  -0.1205087  -0.1111908), wk =   0.0034722
        k(  419) = (  -0.2504726  -0.1928139   0.1482545), wk =   0.0017361
        k(  420) = (   0.2922180  -0.1205087   0.1482545), wk =   0.0017361
        k(  421) = (  -0.2922180  -0.2169156   0.0000000), wk =   0.0017361
        k(  422) = (   0.3339635  -0.1446104   0.0000000), wk =   0.0017361
        k(  423) = (  -0.2922180  -0.2169156  -0.0370636), wk =   0.0034722
        k(  424) = (   0.3339635  -0.1446104  -0.0370636), wk =   0.0034722
        k(  425) = (  -0.2922180  -0.2169156  -0.0741272), wk =   0.0034722
        k(  426) = (   0.3339635  -0.1446104  -0.0741272), wk =   0.0034722
        k(  427) = (  -0.2922180  -0.2169156  -0.1111908), wk =   0.0034722
        k(  428) = (   0.3339635  -0.1446104  -0.1111908), wk =   0.0034722
        k(  429) = (  -0.2922180  -0.2169156   0.1482545), wk =   0.0017361
        k(  430) = (   0.3339635  -0.1446104   0.1482545), wk =   0.0017361
        k(  431) = (  -0.3339635  -0.2410174   0.0000000), wk =   0.0017361
        k(  432) = (   0.3757089  -0.1687122   0.0000000), wk =   0.0017361
        k(  433) = (  -0.3339635  -0.2410174  -0.0370636), wk =   0.0034722
        k(  434) = (   0.3757089  -0.1687122  -0.0370636), wk =   0.0034722
        k(  435) = (  -0.3339635  -0.2410174  -0.0741272), wk =   0.0034722
        k(  436) = (   0.3757089  -0.1687122  -0.0741272), wk =   0.0034722
        k(  437) = (  -0.3339635  -0.2410174  -0.1111908), wk =   0.0034722
        k(  438) = (   0.3757089  -0.1687122  -0.1111908), wk =   0.0034722
        k(  439) = (  -0.3339635  -0.2410174   0.1482545), wk =   0.0017361
        k(  440) = (   0.3757089  -0.1687122   0.1482545), wk =   0.0017361
        k(  441) = (  -0.3757089  -0.2651191   0.0000000), wk =   0.0017361
        k(  442) = (   0.4174543  -0.1928139   0.0000000), wk =   0.0017361
        k(  443) = (  -0.3757089  -0.2651191  -0.0370636), wk =   0.0034722
        k(  444) = (   0.4174543  -0.1928139  -0.0370636), wk =   0.0034722
        k(  445) = (  -0.3757089  -0.2651191  -0.0741272), wk =   0.0034722
        k(  446) = (   0.4174543  -0.1928139  -0.0741272), wk =   0.0034722
        k(  447) = (  -0.3757089  -0.2651191  -0.1111908), wk =   0.0034722
        k(  448) = (   0.4174543  -0.1928139  -0.1111908), wk =   0.0034722
        k(  449) = (  -0.3757089  -0.2651191   0.1482545), wk =   0.0017361
        k(  450) = (   0.4174543  -0.1928139   0.1482545), wk =   0.0017361
        k(  451) = (  -0.4174543  -0.2892208   0.0000000), wk =   0.0017361
        k(  452) = (   0.4591998  -0.2169156   0.0000000), wk =   0.0017361
        k(  453) = (  -0.4174543  -0.2892208  -0.0370636), wk =   0.0034722
        k(  454) = (   0.4591998  -0.2169156  -0.0370636), wk =   0.0034722
        k(  455) = (  -0.4174543  -0.2892208  -0.0741272), wk =   0.0034722
        k(  456) = (   0.4591998  -0.2169156  -0.0741272), wk =   0.0034722
        k(  457) = (  -0.4174543  -0.2892208  -0.1111908), wk =   0.0034722
        k(  458) = (   0.4591998  -0.2169156  -0.1111908), wk =   0.0034722
        k(  459) = (  -0.4174543  -0.2892208   0.1482545), wk =   0.0017361
        k(  460) = (   0.4591998  -0.2169156   0.1482545), wk =   0.0017361
        k(  461) = (  -0.4591998  -0.3133226   0.0000000), wk =   0.0017361
        k(  462) = (   0.5009452  -0.2410174   0.0000000), wk =   0.0017361
        k(  463) = (  -0.4591998  -0.3133226  -0.0370636), wk =   0.0034722
        k(  464) = (   0.5009452  -0.2410174  -0.0370636), wk =   0.0034722
        k(  465) = (  -0.4591998  -0.3133226  -0.0741272), wk =   0.0034722
        k(  466) = (   0.5009452  -0.2410174  -0.0741272), wk =   0.0034722
        k(  467) = (  -0.4591998  -0.3133226  -0.1111908), wk =   0.0034722
        k(  468) = (   0.5009452  -0.2410174  -0.1111908), wk =   0.0034722
        k(  469) = (  -0.4591998  -0.3133226   0.1482545), wk =   0.0017361
        k(  470) = (   0.5009452  -0.2410174   0.1482545), wk =   0.0017361
        k(  471) = (   0.1669817  -0.0000000   0.0000000), wk =   0.0008681
        k(  472) = (   0.1669817  -0.0000000  -0.0370636), wk =   0.0017361
        k(  473) = (   0.1669817  -0.0000000  -0.0741272), wk =   0.0017361
        k(  474) = (   0.1669817  -0.0000000  -0.1111908), wk =   0.0017361
        k(  475) = (   0.1669817  -0.0000000   0.1482545), wk =   0.0008681
        k(  476) = (  -0.1252363  -0.1687122   0.0000000), wk =   0.0017361
        k(  477) = (   0.2087272  -0.0241017   0.0000000), wk =   0.0017361
        k(  478) = (  -0.1252363  -0.1687122  -0.0370636), wk =   0.0034722
        k(  479) = (   0.2087272  -0.0241017  -0.0370636), wk =   0.0034722
        k(  480) = (  -0.1252363  -0.1687122  -0.0741272), wk =   0.0034722
        k(  481) = (   0.2087272  -0.0241017  -0.0741272), wk =   0.0034722
        k(  482) = (  -0.1252363  -0.1687122  -0.1111908), wk =   0.0034722
        k(  483) = (   0.2087272  -0.0241017  -0.1111908), wk =   0.0034722
        k(  484) = (  -0.1252363  -0.1687122   0.1482545), wk =   0.0017361
        k(  485) = (   0.2087272  -0.0241017   0.1482545), wk =   0.0017361
        k(  486) = (  -0.1669817  -0.1928139   0.0000000), wk =   0.0017361
        k(  487) = (   0.2504726  -0.0482035   0.0000000), wk =   0.0017361
        k(  488) = (  -0.1669817  -0.1928139  -0.0370636), wk =   0.0034722
        k(  489) = (   0.2504726  -0.0482035  -0.0370636), wk =   0.0034722
        k(  490) = (  -0.1669817  -0.1928139  -0.0741272), wk =   0.0034722
        k(  491) = (   0.2504726  -0.0482035  -0.0741272), wk =   0.0034722
        k(  492) = (  -0.1669817  -0.1928139  -0.1111908), wk =   0.0034722
        k(  493) = (   0.2504726  -0.0482035  -0.1111908), wk =   0.0034722
        k(  494) = (  -0.1669817  -0.1928139   0.1482545), wk =   0.0017361
        k(  495) = (   0.2504726  -0.0482035   0.1482545), wk =   0.0017361
        k(  496) = (  -0.2087272  -0.2169156   0.0000000), wk =   0.0017361
        k(  497) = (   0.2922180  -0.0723052   0.0000000), wk =   0.0017361
        k(  498) = (  -0.2087272  -0.2169156  -0.0370636), wk =   0.0034722
        k(  499) = (   0.2922180  -0.0723052  -0.0370636), wk =   0.0034722
        k(  500) = (  -0.2087272  -0.2169156  -0.0741272), wk =   0.0034722
        k(  501) = (   0.2922180  -0.0723052  -0.0741272), wk =   0.0034722
        k(  502) = (  -0.2087272  -0.2169156  -0.1111908), wk =   0.0034722
        k(  503) = (   0.2922180  -0.0723052  -0.1111908), wk =   0.0034722
        k(  504) = (  -0.2087272  -0.2169156   0.1482545), wk =   0.0017361
        k(  505) = (   0.2922180  -0.0723052   0.1482545), wk =   0.0017361
        k(  506) = (  -0.2504726  -0.2410174   0.0000000), wk =   0.0017361
        k(  507) = (   0.3339635  -0.0964069   0.0000000), wk =   0.0017361
        k(  508) = (  -0.2504726  -0.2410174  -0.0370636), wk =   0.0034722
        k(  509) = (   0.3339635  -0.0964069  -0.0370636), wk =   0.0034722
        k(  510) = (  -0.2504726  -0.2410174  -0.0741272), wk =   0.0034722
        k(  511) = (   0.3339635  -0.0964069  -0.0741272), wk =   0.0034722
        k(  512) = (  -0.2504726  -0.2410174  -0.1111908), wk =   0.0034722
        k(  513) = (   0.3339635  -0.0964069  -0.1111908), wk =   0.0034722
        k(  514) = (  -0.2504726  -0.2410174   0.1482545), wk =   0.0017361
        k(  515) = (   0.3339635  -0.0964069   0.1482545), wk =   0.0017361
        k(  516) = (  -0.2922180  -0.2651191   0.0000000), wk =   0.0017361
        k(  517) = (   0.3757089  -0.1205087   0.0000000), wk =   0.0017361
        k(  518) = (  -0.2922180  -0.2651191  -0.0370636), wk =   0.0034722
        k(  519) = (   0.3757089  -0.1205087  -0.0370636), wk =   0.0034722
        k(  520) = (  -0.2922180  -0.2651191  -0.0741272), wk =   0.0034722
        k(  521) = (   0.3757089  -0.1205087  -0.0741272), wk =   0.0034722
        k(  522) = (  -0.2922180  -0.2651191  -0.1111908), wk =   0.0034722
        k(  523) = (   0.3757089  -0.1205087  -0.1111908), wk =   0.0034722
        k(  524) = (  -0.2922180  -0.2651191   0.1482545), wk =   0.0017361
        k(  525) = (   0.3757089  -0.1205087   0.1482545), wk =   0.0017361
        k(  526) = (  -0.3339635  -0.2892208   0.0000000), wk =   0.0017361
        k(  527) = (   0.4174543  -0.1446104   0.0000000), wk =   0.0017361
        k(  528) = (  -0.3339635  -0.2892208  -0.0370636), wk =   0.0034722
        k(  529) = (   0.4174543  -0.1446104  -0.0370636), wk =   0.0034722
        k(  530) = (  -0.3339635  -0.2892208  -0.0741272), wk =   0.0034722
        k(  531) = (   0.4174543  -0.1446104  -0.0741272), wk =   0.0034722
        k(  532) = (  -0.3339635  -0.2892208  -0.1111908), wk =   0.0034722
        k(  533) = (   0.4174543  -0.1446104  -0.1111908), wk =   0.0034722
        k(  534) = (  -0.3339635  -0.2892208   0.1482545), wk =   0.0017361
        k(  535) = (   0.4174543  -0.1446104   0.1482545), wk =   0.0017361
        k(  536) = (  -0.3757089  -0.3133226   0.0000000), wk =   0.0017361
        k(  537) = (   0.4591998  -0.1687122   0.0000000), wk =   0.0017361
        k(  538) = (  -0.3757089  -0.3133226  -0.0370636), wk =   0.0034722
        k(  539) = (   0.4591998  -0.1687122  -0.0370636), wk =   0.0034722
        k(  540) = (  -0.3757089  -0.3133226  -0.0741272), wk =   0.0034722
        k(  541) = (   0.4591998  -0.1687122  -0.0741272), wk =   0.0034722
        k(  542) = (  -0.3757089  -0.3133226  -0.1111908), wk =   0.0034722
        k(  543) = (   0.4591998  -0.1687122  -0.1111908), wk =   0.0034722
        k(  544) = (  -0.3757089  -0.3133226   0.1482545), wk =   0.0017361
        k(  545) = (   0.4591998  -0.1687122   0.1482545), wk =   0.0017361
        k(  546) = (  -0.4174543  -0.3374243   0.0000000), wk =   0.0017361
        k(  547) = (   0.5009452  -0.1928139   0.0000000), wk =   0.0017361
        k(  548) = (  -0.4174543  -0.3374243  -0.0370636), wk =   0.0034722
        k(  549) = (   0.5009452  -0.1928139  -0.0370636), wk =   0.0034722
        k(  550) = (  -0.4174543  -0.3374243  -0.0741272), wk =   0.0034722
        k(  551) = (   0.5009452  -0.1928139  -0.0741272), wk =   0.0034722
        k(  552) = (  -0.4174543  -0.3374243  -0.1111908), wk =   0.0034722
        k(  553) = (   0.5009452  -0.1928139  -0.1111908), wk =   0.0034722
        k(  554) = (  -0.4174543  -0.3374243   0.1482545), wk =   0.0017361
        k(  555) = (   0.5009452  -0.1928139   0.1482545), wk =   0.0017361
        k(  556) = (  -0.4591998  -0.3615261   0.0000000), wk =   0.0017361
        k(  557) = (  -0.4591998  -0.3615261  -0.0370636), wk =   0.0034722
        k(  558) = (  -0.4591998  -0.3615261  -0.0741272), wk =   0.0034722
        k(  559) = (  -0.4591998  -0.3615261  -0.1111908), wk =   0.0034722
        k(  560) = (  -0.4591998  -0.3615261   0.1482545), wk =   0.0017361
        k(  561) = (   0.2504726   0.0000000   0.0000000), wk =   0.0008681
        k(  562) = (   0.2504726   0.0000000  -0.0370636), wk =   0.0017361
        k(  563) = (   0.2504726   0.0000000  -0.0741272), wk =   0.0017361
        k(  564) = (   0.2504726   0.0000000  -0.1111908), wk =   0.0017361
        k(  565) = (   0.2504726   0.0000000   0.1482545), wk =   0.0008681
        k(  566) = (  -0.1669817  -0.2410174   0.0000000), wk =   0.0017361
        k(  567) = (   0.2922180  -0.0241017   0.0000000), wk =   0.0017361
        k(  568) = (  -0.1669817  -0.2410174  -0.0370636), wk =   0.0034722
        k(  569) = (   0.2922180  -0.0241017  -0.0370636), wk =   0.0034722
        k(  570) = (  -0.1669817  -0.2410174  -0.0741272), wk =   0.0034722
        k(  571) = (   0.2922180  -0.0241017  -0.0741272), wk =   0.0034722
        k(  572) = (  -0.1669817  -0.2410174  -0.1111908), wk =   0.0034722
        k(  573) = (   0.2922180  -0.0241017  -0.1111908), wk =   0.0034722
        k(  574) = (  -0.1669817  -0.2410174   0.1482545), wk =   0.0017361
        k(  575) = (   0.2922180  -0.0241017   0.1482545), wk =   0.0017361
        k(  576) = (  -0.2087272  -0.2651191   0.0000000), wk =   0.0017361
        k(  577) = (   0.3339635  -0.0482035   0.0000000), wk =   0.0017361
        k(  578) = (  -0.2087272  -0.2651191  -0.0370636), wk =   0.0034722
        k(  579) = (   0.3339635  -0.0482035  -0.0370636), wk =   0.0034722
        k(  580) = (  -0.2087272  -0.2651191  -0.0741272), wk =   0.0034722
        k(  581) = (   0.3339635  -0.0482035  -0.0741272), wk =   0.0034722
        k(  582) = (  -0.2087272  -0.2651191  -0.1111908), wk =   0.0034722
        k(  583) = (   0.3339635  -0.0482035  -0.1111908), wk =   0.0034722
        k(  584) = (  -0.2087272  -0.2651191   0.1482545), wk =   0.0017361
        k(  585) = (   0.3339635  -0.0482035   0.1482545), wk =   0.0017361
        k(  586) = (  -0.2504726  -0.2892208   0.0000000), wk =   0.0017361
        k(  587) = (   0.3757089  -0.0723052   0.0000000), wk =   0.0017361
        k(  588) = (  -0.2504726  -0.2892208  -0.0370636), wk =   0.0034722
        k(  589) = (   0.3757089  -0.0723052  -0.0370636), wk =   0.0034722
        k(  590) = (  -0.2504726  -0.2892208  -0.0741272), wk =   0.0034722
        k(  591) = (   0.3757089  -0.0723052  -0.0741272), wk =   0.0034722
        k(  592) = (  -0.2504726  -0.2892208  -0.1111908), wk =   0.0034722
        k(  593) = (   0.3757089  -0.0723052  -0.1111908), wk =   0.0034722
        k(  594) = (  -0.2504726  -0.2892208   0.1482545), wk =   0.0017361
        k(  595) = (   0.3757089  -0.0723052   0.1482545), wk =   0.0017361
        k(  596) = (  -0.2922180  -0.3133226   0.0000000), wk =   0.0017361
        k(  597) = (   0.4174543  -0.0964069   0.0000000), wk =   0.0017361
        k(  598) = (  -0.2922180  -0.3133226  -0.0370636), wk =   0.0034722
        k(  599) = (   0.4174543  -0.0964069  -0.0370636), wk =   0.0034722
        k(  600) = (  -0.2922180  -0.3133226  -0.0741272), wk =   0.0034722
        k(  601) = (   0.4174543  -0.0964069  -0.0741272), wk =   0.0034722
        k(  602) = (  -0.2922180  -0.3133226  -0.1111908), wk =   0.0034722
        k(  603) = (   0.4174543  -0.0964069  -0.1111908), wk =   0.0034722
        k(  604) = (  -0.2922180  -0.3133226   0.1482545), wk =   0.0017361
        k(  605) = (   0.4174543  -0.0964069   0.1482545), wk =   0.0017361
        k(  606) = (  -0.3339635  -0.3374243   0.0000000), wk =   0.0017361
        k(  607) = (   0.4591998  -0.1205087   0.0000000), wk =   0.0017361
        k(  608) = (  -0.3339635  -0.3374243  -0.0370636), wk =   0.0034722
        k(  609) = (   0.4591998  -0.1205087  -0.0370636), wk =   0.0034722
        k(  610) = (  -0.3339635  -0.3374243  -0.0741272), wk =   0.0034722
        k(  611) = (   0.4591998  -0.1205087  -0.0741272), wk =   0.0034722
        k(  612) = (  -0.3339635  -0.3374243  -0.1111908), wk =   0.0034722
        k(  613) = (   0.4591998  -0.1205087  -0.1111908), wk =   0.0034722
        k(  614) = (  -0.3339635  -0.3374243   0.1482545), wk =   0.0017361
        k(  615) = (   0.4591998  -0.1205087   0.1482545), wk =   0.0017361
        k(  616) = (  -0.3757089  -0.3615261   0.0000000), wk =   0.0017361
        k(  617) = (   0.5009452  -0.1446104   0.0000000), wk =   0.0017361
        k(  618) = (  -0.3757089  -0.3615261  -0.0370636), wk =   0.0034722
        k(  619) = (   0.5009452  -0.1446104  -0.0370636), wk =   0.0034722
        k(  620) = (  -0.3757089  -0.3615261  -0.0741272), wk =   0.0034722
        k(  621) = (   0.5009452  -0.1446104  -0.0741272), wk =   0.0034722
        k(  622) = (  -0.3757089  -0.3615261  -0.1111908), wk =   0.0034722
        k(  623) = (   0.5009452  -0.1446104  -0.1111908), wk =   0.0034722
        k(  624) = (  -0.3757089  -0.3615261   0.1482545), wk =   0.0017361
        k(  625) = (   0.5009452  -0.1446104   0.1482545), wk =   0.0017361
        k(  626) = (  -0.4174543  -0.3856278   0.0000000), wk =   0.0017361
        k(  627) = (   0.5426906  -0.1687122   0.0000000), wk =   0.0017361
        k(  628) = (  -0.4174543  -0.3856278  -0.0370636), wk =   0.0034722
        k(  629) = (   0.5426906  -0.1687122  -0.0370636), wk =   0.0034722
        k(  630) = (  -0.4174543  -0.3856278  -0.0741272), wk =   0.0034722
        k(  631) = (   0.5426906  -0.1687122  -0.0741272), wk =   0.0034722
        k(  632) = (  -0.4174543  -0.3856278  -0.1111908), wk =   0.0034722
        k(  633) = (   0.5426906  -0.1687122  -0.1111908), wk =   0.0034722
        k(  634) = (  -0.4174543  -0.3856278   0.1482545), wk =   0.0017361
        k(  635) = (   0.5426906  -0.1687122   0.1482545), wk =   0.0017361
        k(  636) = (   0.3339635  -0.0000000   0.0000000), wk =   0.0008681
        k(  637) = (   0.3339635  -0.0000000  -0.0370636), wk =   0.0017361
        k(  638) = (   0.3339635  -0.0000000  -0.0741272), wk =   0.0017361
        k(  639) = (   0.3339635  -0.0000000  -0.1111908), wk =   0.0017361
        k(  640) = (   0.3339635  -0.0000000   0.1482545), wk =   0.0008681
        k(  641) = (  -0.2087272  -0.3133226   0.0000000), wk =   0.0017361
        k(  642) = (   0.3757089  -0.0241017   0.0000000), wk =   0.0017361
        k(  643) = (  -0.2087272  -0.3133226  -0.0370636), wk =   0.0034722
        k(  644) = (   0.3757089  -0.0241017  -0.0370636), wk =   0.0034722
        k(  645) = (  -0.2087272  -0.3133226  -0.0741272), wk =   0.0034722
        k(  646) = (   0.3757089  -0.0241017  -0.0741272), wk =   0.0034722
        k(  647) = (  -0.2087272  -0.3133226  -0.1111908), wk =   0.0034722
        k(  648) = (   0.3757089  -0.0241017  -0.1111908), wk =   0.0034722
        k(  649) = (  -0.2087272  -0.3133226   0.1482545), wk =   0.0017361
        k(  650) = (   0.3757089  -0.0241017   0.1482545), wk =   0.0017361
        k(  651) = (  -0.2504726  -0.3374243   0.0000000), wk =   0.0017361
        k(  652) = (   0.4174543  -0.0482035   0.0000000), wk =   0.0017361
        k(  653) = (  -0.2504726  -0.3374243  -0.0370636), wk =   0.0034722
        k(  654) = (   0.4174543  -0.0482035  -0.0370636), wk =   0.0034722
        k(  655) = (  -0.2504726  -0.3374243  -0.0741272), wk =   0.0034722
        k(  656) = (   0.4174543  -0.0482035  -0.0741272), wk =   0.0034722
        k(  657) = (  -0.2504726  -0.3374243  -0.1111908), wk =   0.0034722
        k(  658) = (   0.4174543  -0.0482035  -0.1111908), wk =   0.0034722
        k(  659) = (  -0.2504726  -0.3374243   0.1482545), wk =   0.0017361
        k(  660) = (   0.4174543  -0.0482035   0.1482545), wk =   0.0017361
        k(  661) = (  -0.2922180  -0.3615261   0.0000000), wk =   0.0017361
        k(  662) = (   0.4591998  -0.0723052   0.0000000), wk =   0.0017361
        k(  663) = (  -0.2922180  -0.3615261  -0.0370636), wk =   0.0034722
        k(  664) = (   0.4591998  -0.0723052  -0.0370636), wk =   0.0034722
        k(  665) = (  -0.2922180  -0.3615261  -0.0741272), wk =   0.0034722
        k(  666) = (   0.4591998  -0.0723052  -0.0741272), wk =   0.0034722
        k(  667) = (  -0.2922180  -0.3615261  -0.1111908), wk =   0.0034722
        k(  668) = (   0.4591998  -0.0723052  -0.1111908), wk =   0.0034722
        k(  669) = (  -0.2922180  -0.3615261   0.1482545), wk =   0.0017361
        k(  670) = (   0.4591998  -0.0723052   0.1482545), wk =   0.0017361
        k(  671) = (  -0.3339635  -0.3856278   0.0000000), wk =   0.0017361
        k(  672) = (   0.5009452  -0.0964069   0.0000000), wk =   0.0017361
        k(  673) = (  -0.3339635  -0.3856278  -0.0370636), wk =   0.0034722
        k(  674) = (   0.5009452  -0.0964069  -0.0370636), wk =   0.0034722
        k(  675) = (  -0.3339635  -0.3856278  -0.0741272), wk =   0.0034722
        k(  676) = (   0.5009452  -0.0964069  -0.0741272), wk =   0.0034722
        k(  677) = (  -0.3339635  -0.3856278  -0.1111908), wk =   0.0034722
        k(  678) = (   0.5009452  -0.0964069  -0.1111908), wk =   0.0034722
        k(  679) = (  -0.3339635  -0.3856278   0.1482545), wk =   0.0017361
        k(  680) = (   0.5009452  -0.0964069   0.1482545), wk =   0.0017361
        k(  681) = (  -0.3757089  -0.4097295   0.0000000), wk =   0.0017361
        k(  682) = (   0.5426906  -0.1205087   0.0000000), wk =   0.0017361
        k(  683) = (  -0.3757089  -0.4097295  -0.0370636), wk =   0.0034722
        k(  684) = (   0.5426906  -0.1205087  -0.0370636), wk =   0.0034722
        k(  685) = (  -0.3757089  -0.4097295  -0.0741272), wk =   0.0034722
        k(  686) = (   0.5426906  -0.1205087  -0.0741272), wk =   0.0034722
        k(  687) = (  -0.3757089  -0.4097295  -0.1111908), wk =   0.0034722
        k(  688) = (   0.5426906  -0.1205087  -0.1111908), wk =   0.0034722
        k(  689) = (  -0.3757089  -0.4097295   0.1482545), wk =   0.0017361
        k(  690) = (   0.5426906  -0.1205087   0.1482545), wk =   0.0017361
        k(  691) = (  -0.4174543  -0.4338313   0.0000000), wk =   0.0017361
        k(  692) = (  -0.4174543  -0.4338313  -0.0370636), wk =   0.0034722
        k(  693) = (  -0.4174543  -0.4338313  -0.0741272), wk =   0.0034722
        k(  694) = (  -0.4174543  -0.4338313  -0.1111908), wk =   0.0034722
        k(  695) = (  -0.4174543  -0.4338313   0.1482545), wk =   0.0017361
        k(  696) = (   0.4174543   0.0000000   0.0000000), wk =   0.0008681
        k(  697) = (   0.4174543   0.0000000  -0.0370636), wk =   0.0017361
        k(  698) = (   0.4174543   0.0000000  -0.0741272), wk =   0.0017361
        k(  699) = (   0.4174543   0.0000000  -0.1111908), wk =   0.0017361
        k(  700) = (   0.4174543   0.0000000   0.1482545), wk =   0.0008681
        k(  701) = (  -0.2504726  -0.3856278   0.0000000), wk =   0.0017361
        k(  702) = (   0.4591998  -0.0241017   0.0000000), wk =   0.0017361
        k(  703) = (  -0.2504726  -0.3856278  -0.0370636), wk =   0.0034722
        k(  704) = (   0.4591998  -0.0241017  -0.0370636), wk =   0.0034722
        k(  705) = (  -0.2504726  -0.3856278  -0.0741272), wk =   0.0034722
        k(  706) = (   0.4591998  -0.0241017  -0.0741272), wk =   0.0034722
        k(  707) = (  -0.2504726  -0.3856278  -0.1111908), wk =   0.0034722
        k(  708) = (   0.4591998  -0.0241017  -0.1111908), wk =   0.0034722
        k(  709) = (  -0.2504726  -0.3856278   0.1482545), wk =   0.0017361
        k(  710) = (   0.4591998  -0.0241017   0.1482545), wk =   0.0017361
        k(  711) = (  -0.2922180  -0.4097295   0.0000000), wk =   0.0017361
        k(  712) = (   0.5009452  -0.0482035   0.0000000), wk =   0.0017361
        k(  713) = (  -0.2922180  -0.4097295  -0.0370636), wk =   0.0034722
        k(  714) = (   0.5009452  -0.0482035  -0.0370636), wk =   0.0034722
        k(  715) = (  -0.2922180  -0.4097295  -0.0741272), wk =   0.0034722
        k(  716) = (   0.5009452  -0.0482035  -0.0741272), wk =   0.0034722
        k(  717) = (  -0.2922180  -0.4097295  -0.1111908), wk =   0.0034722
        k(  718) = (   0.5009452  -0.0482035  -0.1111908), wk =   0.0034722
        k(  719) = (  -0.2922180  -0.4097295   0.1482545), wk =   0.0017361
        k(  720) = (   0.5009452  -0.0482035   0.1482545), wk =   0.0017361
        k(  721) = (  -0.3339635  -0.4338313   0.0000000), wk =   0.0017361
        k(  722) = (   0.5426906  -0.0723052   0.0000000), wk =   0.0017361
        k(  723) = (  -0.3339635  -0.4338313  -0.0370636), wk =   0.0034722
        k(  724) = (   0.5426906  -0.0723052  -0.0370636), wk =   0.0034722
        k(  725) = (  -0.3339635  -0.4338313  -0.0741272), wk =   0.0034722
        k(  726) = (   0.5426906  -0.0723052  -0.0741272), wk =   0.0034722
        k(  727) = (  -0.3339635  -0.4338313  -0.1111908), wk =   0.0034722
        k(  728) = (   0.5426906  -0.0723052  -0.1111908), wk =   0.0034722
        k(  729) = (  -0.3339635  -0.4338313   0.1482545), wk =   0.0017361
        k(  730) = (   0.5426906  -0.0723052   0.1482545), wk =   0.0017361
        k(  731) = (  -0.3757089  -0.4579330   0.0000000), wk =   0.0017361
        k(  732) = (   0.5844361  -0.0964069   0.0000000), wk =   0.0017361
        k(  733) = (  -0.3757089  -0.4579330  -0.0370636), wk =   0.0034722
        k(  734) = (   0.5844361  -0.0964069  -0.0370636), wk =   0.0034722
        k(  735) = (  -0.3757089  -0.4579330  -0.0741272), wk =   0.0034722
        k(  736) = (   0.5844361  -0.0964069  -0.0741272), wk =   0.0034722
        k(  737) = (  -0.3757089  -0.4579330  -0.1111908), wk =   0.0034722
        k(  738) = (   0.5844361  -0.0964069  -0.1111908), wk =   0.0034722
        k(  739) = (  -0.3757089  -0.4579330   0.1482545), wk =   0.0017361
        k(  740) = (   0.5844361  -0.0964069   0.1482545), wk =   0.0017361
        k(  741) = (   0.5009452   0.0000000   0.0000000), wk =   0.0008681
        k(  742) = (   0.5009452   0.0000000  -0.0370636), wk =   0.0017361
        k(  743) = (   0.5009452   0.0000000  -0.0741272), wk =   0.0017361
        k(  744) = (   0.5009452   0.0000000  -0.1111908), wk =   0.0017361
        k(  745) = (   0.5009452   0.0000000   0.1482545), wk =   0.0008681
        k(  746) = (  -0.2922180  -0.4579330   0.0000000), wk =   0.0017361
        k(  747) = (   0.5426906  -0.0241017   0.0000000), wk =   0.0017361
        k(  748) = (  -0.2922180  -0.4579330  -0.0370636), wk =   0.0034722
        k(  749) = (   0.5426906  -0.0241017  -0.0370636), wk =   0.0034722
        k(  750) = (  -0.2922180  -0.4579330  -0.0741272), wk =   0.0034722
        k(  751) = (   0.5426906  -0.0241017  -0.0741272), wk =   0.0034722
        k(  752) = (  -0.2922180  -0.4579330  -0.1111908), wk =   0.0034722
        k(  753) = (   0.5426906  -0.0241017  -0.1111908), wk =   0.0034722
        k(  754) = (  -0.2922180  -0.4579330   0.1482545), wk =   0.0017361
        k(  755) = (   0.5426906  -0.0241017   0.1482545), wk =   0.0017361
        k(  756) = (  -0.3339635  -0.4820347   0.0000000), wk =   0.0017361
        k(  757) = (   0.5844361  -0.0482035   0.0000000), wk =   0.0017361
        k(  758) = (  -0.3339635  -0.4820347  -0.0370636), wk =   0.0034722
        k(  759) = (   0.5844361  -0.0482035  -0.0370636), wk =   0.0034722
        k(  760) = (  -0.3339635  -0.4820347  -0.0741272), wk =   0.0034722
        k(  761) = (   0.5844361  -0.0482035  -0.0741272), wk =   0.0034722
        k(  762) = (  -0.3339635  -0.4820347  -0.1111908), wk =   0.0034722
        k(  763) = (   0.5844361  -0.0482035  -0.1111908), wk =   0.0034722
        k(  764) = (  -0.3339635  -0.4820347   0.1482545), wk =   0.0017361
        k(  765) = (   0.5844361  -0.0482035   0.1482545), wk =   0.0017361
        k(  766) = (  -0.3757089  -0.5061365   0.0000000), wk =   0.0017361
        k(  767) = (  -0.3757089  -0.5061365  -0.0370636), wk =   0.0034722
        k(  768) = (  -0.3757089  -0.5061365  -0.0741272), wk =   0.0034722
        k(  769) = (  -0.3757089  -0.5061365  -0.1111908), wk =   0.0034722
        k(  770) = (  -0.3757089  -0.5061365   0.1482545), wk =   0.0017361
        k(  771) = (   0.5844361   0.0000000   0.0000000), wk =   0.0008681
        k(  772) = (   0.5844361   0.0000000  -0.0370636), wk =   0.0017361
        k(  773) = (   0.5844361   0.0000000  -0.0741272), wk =   0.0017361
        k(  774) = (   0.5844361   0.0000000  -0.1111908), wk =   0.0017361
        k(  775) = (   0.5844361   0.0000000   0.1482545), wk =   0.0008681
        k(  776) = (  -0.3339635  -0.5302382   0.0000000), wk =   0.0017361
        k(  777) = (   0.6261815  -0.0241017   0.0000000), wk =   0.0017361
        k(  778) = (  -0.3339635  -0.5302382  -0.0370636), wk =   0.0034722
        k(  779) = (   0.6261815  -0.0241017  -0.0370636), wk =   0.0034722
        k(  780) = (  -0.3339635  -0.5302382  -0.0741272), wk =   0.0034722
        k(  781) = (   0.6261815  -0.0241017  -0.0741272), wk =   0.0034722
        k(  782) = (  -0.3339635  -0.5302382  -0.1111908), wk =   0.0034722
        k(  783) = (   0.6261815  -0.0241017  -0.1111908), wk =   0.0034722
        k(  784) = (  -0.3339635  -0.5302382   0.1482545), wk =   0.0017361
        k(  785) = (   0.6261815  -0.0241017   0.1482545), wk =   0.0017361

                       cryst. coord.
        k(    1) = (   0.0000000   0.0000000   0.0000000), wk =   0.0004340
        k(    2) = (   0.0000000   0.0000000   0.1250000), wk =   0.0008681
        k(    3) = (   0.0000000   0.0000000   0.2500000), wk =   0.0008681
        k(    4) = (   0.0000000   0.0000000   0.3750000), wk =   0.0008681
        k(    5) = (   0.0000000   0.0000000  -0.5000000), wk =   0.0004340
        k(    6) = (   0.0000000   0.0416667   0.0000000), wk =   0.0008681
        k(    7) = (   0.0000000   0.0416667   0.1250000), wk =   0.0017361
        k(    8) = (   0.0000000   0.0416667   0.2500000), wk =   0.0017361
        k(    9) = (   0.0000000   0.0416667   0.3750000), wk =   0.0017361
        k(   10) = (   0.0000000   0.0416667  -0.5000000), wk =   0.0008681
        k(   11) = (   0.0000000   0.0833333   0.0000000), wk =   0.0008681
        k(   12) = (   0.0000000   0.0833333   0.1250000), wk =   0.0017361
        k(   13) = (   0.0000000   0.0833333   0.2500000), wk =   0.0017361
        k(   14) = (   0.0000000   0.0833333   0.3750000), wk =   0.0017361
        k(   15) = (   0.0000000   0.0833333  -0.5000000), wk =   0.0008681
        k(   16) = (   0.0000000   0.1250000   0.0000000), wk =   0.0008681
        k(   17) = (   0.0000000   0.1250000   0.1250000), wk =   0.0017361
        k(   18) = (   0.0000000   0.1250000   0.2500000), wk =   0.0017361
        k(   19) = (   0.0000000   0.1250000   0.3750000), wk =   0.0017361
        k(   20) = (   0.0000000   0.1250000  -0.5000000), wk =   0.0008681
        k(   21) = (   0.0000000   0.1666667   0.0000000), wk =   0.0008681
        k(   22) = (   0.0000000   0.1666667   0.1250000), wk =   0.0017361
        k(   23) = (   0.0000000   0.1666667   0.2500000), wk =   0.0017361
        k(   24) = (   0.0000000   0.1666667   0.3750000), wk =   0.0017361
        k(   25) = (   0.0000000   0.1666667  -0.5000000), wk =   0.0008681
        k(   26) = (   0.0000000   0.2083333   0.0000000), wk =   0.0008681
        k(   27) = (   0.0000000   0.2083333   0.1250000), wk =   0.0017361
        k(   28) = (   0.0000000   0.2083333   0.2500000), wk =   0.0017361
        k(   29) = (   0.0000000   0.2083333   0.3750000), wk =   0.0017361
        k(   30) = (   0.0000000   0.2083333  -0.5000000), wk =   0.0008681
        k(   31) = (   0.0000000   0.2500000   0.0000000), wk =   0.0008681
        k(   32) = (   0.0000000   0.2500000   0.1250000), wk =   0.0017361
        k(   33) = (   0.0000000   0.2500000   0.2500000), wk =   0.0017361
        k(   34) = (   0.0000000   0.2500000   0.3750000), wk =   0.0017361
        k(   35) = (   0.0000000   0.2500000  -0.5000000), wk =   0.0008681
        k(   36) = (   0.0000000   0.2916667   0.0000000), wk =   0.0008681
        k(   37) = (   0.0000000   0.2916667   0.1250000), wk =   0.0017361
        k(   38) = (   0.0000000   0.2916667   0.2500000), wk =   0.0017361
        k(   39) = (   0.0000000   0.2916667   0.3750000), wk =   0.0017361
        k(   40) = (   0.0000000   0.2916667  -0.5000000), wk =   0.0008681
        k(   41) = (   0.0000000   0.3333333   0.0000000), wk =   0.0008681
        k(   42) = (   0.0000000   0.3333333   0.1250000), wk =   0.0017361
        k(   43) = (   0.0000000   0.3333333   0.2500000), wk =   0.0017361
        k(   44) = (   0.0000000   0.3333333   0.3750000), wk =   0.0017361
        k(   45) = (   0.0000000   0.3333333  -0.5000000), wk =   0.0008681
        k(   46) = (   0.0000000   0.3750000   0.0000000), wk =   0.0008681
        k(   47) = (   0.0000000   0.3750000   0.1250000), wk =   0.0017361
        k(   48) = (   0.0000000   0.3750000   0.2500000), wk =   0.0017361
        k(   49) = (   0.0000000   0.3750000   0.3750000), wk =   0.0017361
        k(   50) = (   0.0000000   0.3750000  -0.5000000), wk =   0.0008681
        k(   51) = (   0.0000000   0.4166667   0.0000000), wk =   0.0008681
        k(   52) = (   0.0000000   0.4166667   0.1250000), wk =   0.0017361
        k(   53) = (   0.0000000   0.4166667   0.2500000), wk =   0.0017361
        k(   54) = (   0.0000000   0.4166667   0.3750000), wk =   0.0017361
        k(   55) = (   0.0000000   0.4166667  -0.5000000), wk =   0.0008681
        k(   56) = (   0.0000000   0.4583333   0.0000000), wk =   0.0008681
        k(   57) = (   0.0000000   0.4583333   0.1250000), wk =   0.0017361
        k(   58) = (   0.0000000   0.4583333   0.2500000), wk =   0.0017361
        k(   59) = (   0.0000000   0.4583333   0.3750000), wk =   0.0017361
        k(   60) = (   0.0000000   0.4583333  -0.5000000), wk =   0.0008681
        k(   61) = (   0.0000000  -0.5000000   0.0000000), wk =   0.0004340
        k(   62) = (   0.0000000  -0.5000000   0.1250000), wk =   0.0008681
        k(   63) = (   0.0000000  -0.5000000   0.2500000), wk =   0.0008681
        k(   64) = (   0.0000000  -0.5000000   0.3750000), wk =   0.0008681
        k(   65) = (   0.0000000  -0.5000000  -0.5000000), wk =   0.0004340
        k(   66) = (   0.0416667   0.0416667   0.0000000), wk =   0.0017361
        k(   67) = (   0.0416667   0.0416667   0.1250000), wk =   0.0034722
        k(   68) = (   0.0416667   0.0416667   0.2500000), wk =   0.0034722
        k(   69) = (   0.0416667   0.0416667   0.3750000), wk =   0.0034722
        k(   70) = (   0.0416667   0.0416667  -0.5000000), wk =   0.0017361
        k(   71) = (   0.0416667   0.0833333   0.0000000), wk =   0.0017361
        k(   72) = (   0.0416667   0.0833333   0.1250000), wk =   0.0034722
        k(   73) = (   0.0416667   0.0833333   0.2500000), wk =   0.0034722
        k(   74) = (   0.0416667   0.0833333   0.3750000), wk =   0.0034722
        k(   75) = (   0.0416667   0.0833333  -0.5000000), wk =   0.0017361
        k(   76) = (   0.0416667   0.1250000   0.0000000), wk =   0.0017361
        k(   77) = (   0.0416667   0.1250000   0.1250000), wk =   0.0034722
        k(   78) = (   0.0416667   0.1250000   0.2500000), wk =   0.0034722
        k(   79) = (   0.0416667   0.1250000   0.3750000), wk =   0.0034722
        k(   80) = (   0.0416667   0.1250000  -0.5000000), wk =   0.0017361
        k(   81) = (   0.0416667   0.1666667   0.0000000), wk =   0.0017361
        k(   82) = (   0.0416667   0.1666667   0.1250000), wk =   0.0034722
        k(   83) = (   0.0416667   0.1666667   0.2500000), wk =   0.0034722
        k(   84) = (   0.0416667   0.1666667   0.3750000), wk =   0.0034722
        k(   85) = (   0.0416667   0.1666667  -0.5000000), wk =   0.0017361
        k(   86) = (   0.0416667   0.2083333   0.0000000), wk =   0.0017361
        k(   87) = (   0.0416667   0.2083333   0.1250000), wk =   0.0034722
        k(   88) = (   0.0416667   0.2083333   0.2500000), wk =   0.0034722
        k(   89) = (   0.0416667   0.2083333   0.3750000), wk =   0.0034722
        k(   90) = (   0.0416667   0.2083333  -0.5000000), wk =   0.0017361
        k(   91) = (   0.0416667   0.2500000   0.0000000), wk =   0.0017361
        k(   92) = (   0.0416667   0.2500000   0.1250000), wk =   0.0034722
        k(   93) = (   0.0416667   0.2500000   0.2500000), wk =   0.0034722
        k(   94) = (   0.0416667   0.2500000   0.3750000), wk =   0.0034722
        k(   95) = (   0.0416667   0.2500000  -0.5000000), wk =   0.0017361
        k(   96) = (   0.0416667   0.2916667   0.0000000), wk =   0.0017361
        k(   97) = (   0.0416667   0.2916667   0.1250000), wk =   0.0034722
        k(   98) = (   0.0416667   0.2916667   0.2500000), wk =   0.0034722
        k(   99) = (   0.0416667   0.2916667   0.3750000), wk =   0.0034722
        k(  100) = (   0.0416667   0.2916667  -0.5000000), wk =   0.0017361
        k(  101) = (   0.0416667   0.3333333   0.0000000), wk =   0.0017361
        k(  102) = (   0.0416667   0.3333333   0.1250000), wk =   0.0034722
        k(  103) = (   0.0416667   0.3333333   0.2500000), wk =   0.0034722
        k(  104) = (   0.0416667   0.3333333   0.3750000), wk =   0.0034722
        k(  105) = (   0.0416667   0.3333333  -0.5000000), wk =   0.0017361
        k(  106) = (   0.0416667   0.3750000   0.0000000), wk =   0.0017361
        k(  107) = (   0.0416667   0.3750000   0.1250000), wk =   0.0034722
        k(  108) = (   0.0416667   0.3750000   0.2500000), wk =   0.0034722
        k(  109) = (   0.0416667   0.3750000   0.3750000), wk =   0.0034722
        k(  110) = (   0.0416667   0.3750000  -0.5000000), wk =   0.0017361
        k(  111) = (   0.0416667   0.4166667   0.0000000), wk =   0.0017361
        k(  112) = (   0.0416667   0.4166667   0.1250000), wk =   0.0034722
        k(  113) = (   0.0416667   0.4166667   0.2500000), wk =   0.0034722
        k(  114) = (   0.0416667   0.4166667   0.3750000), wk =   0.0034722
        k(  115) = (   0.0416667   0.4166667  -0.5000000), wk =   0.0017361
        k(  116) = (   0.0416667   0.4583333   0.0000000), wk =   0.0017361
        k(  117) = (   0.0416667   0.4583333   0.1250000), wk =   0.0034722
        k(  118) = (   0.0416667   0.4583333   0.2500000), wk =   0.0034722
        k(  119) = (   0.0416667   0.4583333   0.3750000), wk =   0.0034722
        k(  120) = (   0.0416667   0.4583333  -0.5000000), wk =   0.0017361
        k(  121) = (   0.0833333   0.0833333   0.0000000), wk =   0.0017361
        k(  122) = (   0.0833333   0.0833333   0.1250000), wk =   0.0034722
        k(  123) = (   0.0833333   0.0833333   0.2500000), wk =   0.0034722
        k(  124) = (   0.0833333   0.0833333   0.3750000), wk =   0.0034722
        k(  125) = (   0.0833333   0.0833333  -0.5000000), wk =   0.0017361
        k(  126) = (   0.0833333   0.1250000   0.0000000), wk =   0.0017361
        k(  127) = (   0.0833333   0.1250000   0.1250000), wk =   0.0034722
        k(  128) = (   0.0833333   0.1250000   0.2500000), wk =   0.0034722
        k(  129) = (   0.0833333   0.1250000   0.3750000), wk =   0.0034722
        k(  130) = (   0.0833333   0.1250000  -0.5000000), wk =   0.0017361
        k(  131) = (   0.0833333   0.1666667   0.0000000), wk =   0.0017361
        k(  132) = (   0.0833333   0.1666667   0.1250000), wk =   0.0034722
        k(  133) = (   0.0833333   0.1666667   0.2500000), wk =   0.0034722
        k(  134) = (   0.0833333   0.1666667   0.3750000), wk =   0.0034722
        k(  135) = (   0.0833333   0.1666667  -0.5000000), wk =   0.0017361
        k(  136) = (   0.0833333   0.2083333   0.0000000), wk =   0.0017361
        k(  137) = (   0.0833333   0.2083333   0.1250000), wk =   0.0034722
        k(  138) = (   0.0833333   0.2083333   0.2500000), wk =   0.0034722
        k(  139) = (   0.0833333   0.2083333   0.3750000), wk =   0.0034722
        k(  140) = (   0.0833333   0.2083333  -0.5000000), wk =   0.0017361
        k(  141) = (   0.0833333   0.2500000   0.0000000), wk =   0.0017361
        k(  142) = (   0.0833333   0.2500000   0.1250000), wk =   0.0034722
        k(  143) = (   0.0833333   0.2500000   0.2500000), wk =   0.0034722
        k(  144) = (   0.0833333   0.2500000   0.3750000), wk =   0.0034722
        k(  145) = (   0.0833333   0.2500000  -0.5000000), wk =   0.0017361
        k(  146) = (   0.0833333   0.2916667   0.0000000), wk =   0.0017361
        k(  147) = (   0.0833333   0.2916667   0.1250000), wk =   0.0034722
        k(  148) = (   0.0833333   0.2916667   0.2500000), wk =   0.0034722
        k(  149) = (   0.0833333   0.2916667   0.3750000), wk =   0.0034722
        k(  150) = (   0.0833333   0.2916667  -0.5000000), wk =   0.0017361
        k(  151) = (   0.0833333   0.3333333   0.0000000), wk =   0.0017361
        k(  152) = (   0.0833333   0.3333333   0.1250000), wk =   0.0034722
        k(  153) = (   0.0833333   0.3333333   0.2500000), wk =   0.0034722
        k(  154) = (   0.0833333   0.3333333   0.3750000), wk =   0.0034722
        k(  155) = (   0.0833333   0.3333333  -0.5000000), wk =   0.0017361
        k(  156) = (   0.0833333   0.3750000   0.0000000), wk =   0.0017361
        k(  157) = (   0.0833333   0.3750000   0.1250000), wk =   0.0034722
        k(  158) = (   0.0833333   0.3750000   0.2500000), wk =   0.0034722
        k(  159) = (   0.0833333   0.3750000   0.3750000), wk =   0.0034722
        k(  160) = (   0.0833333   0.3750000  -0.5000000), wk =   0.0017361
        k(  161) = (   0.0833333   0.4166667   0.0000000), wk =   0.0017361
[...]
     6.7998   6.9022  14.7603  15.4049

     occupation numbers 
     1.0000   1.0000   1.0000   1.0000   1.0000   1.0000   1.0000   1.0002
    -0.0002  -0.0001  -0.0000  -0.0000

          k =-0.2922-0.4579-0.1112 (  1530 PWs)   bands (ev):

    -9.7141  -9.7034  -6.3866  -6.3819  -4.6087  -4.6051   2.7518   2.8815
     6.8234   6.8788  14.8987  15.2365

     occupation numbers 
     1.0000   1.0000   1.0000   1.0000   1.0000   1.0000   1.0000   1.0001
    -0.0002  -0.0001  -0.0000  -0.0000

          k = 0.5427-0.0241-0.1112 (  1530 PWs)   bands (ev):

    -9.7141  -9.7034  -6.3870  -6.3822  -4.6083  -4.6047   2.7520   2.8818
     6.8229   6.8784  14.8989  15.2367

     occupation numbers 
     1.0000   1.0000   1.0000   1.0000   1.0000   1.0000   1.0000   1.0001
    -0.0002  -0.0001  -0.0000  -0.0000

          k =-0.2922-0.4579 0.1483 (  1532 PWs)   bands (ev):

    -9.7088  -9.7088  -6.3842  -6.3842  -4.6069  -4.6069   2.8161   2.8161
     6.8510   6.8510  15.0621  15.0621

     occupation numbers 
     1.0000   1.0000   1.0000   1.0000   1.0000   1.0000   1.0001   1.0001
    -0.0002  -0.0002  -0.0000  -0.0000

          k = 0.5427-0.0241 0.1483 (  1532 PWs)   bands (ev):

    -9.7087  -9.7087  -6.3846  -6.3846  -4.6065  -4.6065   2.8163   2.8163
     6.8505   6.8505  15.0623  15.0623

     occupation numbers 
     1.0000   1.0000   1.0000   1.0000   1.0000   1.0000   1.0001   1.0001
    -0.0002  -0.0002  -0.0000  -0.0000

          k =-0.3340-0.4820 0.0000 (  1523 PWs)   bands (ev):

    -8.9994  -8.9752  -7.1376  -7.1219  -4.8578  -4.8461   3.3497   3.6131
     6.0745   6.2044  15.6270  15.6837

     occupation numbers 
     1.0000   1.0000   1.0000   1.0000   1.0000   1.0000   1.0034   1.0125
    -0.0158  -0.0092  -0.0000  -0.0000

          k = 0.5844-0.0482 0.0000 (  1523 PWs)   bands (ev):

    -8.9994  -8.9752  -7.1378  -7.1221  -4.8577  -4.8459   3.3500   3.6133
     6.0743   6.2041  15.6270  15.6838

     occupation numbers 
     1.0000   1.0000   1.0000   1.0000   1.0000   1.0000   1.0034   1.0125
    -0.0158  -0.0092  -0.0000  -0.0000

          k =-0.3340-0.4820-0.0371 (  1527 PWs)   bands (ev):

    -8.9985  -8.9762  -7.1371  -7.1225  -4.8574  -4.8466   3.3597   3.6030
     6.0789   6.1989  15.5585  15.6459

     occupation numbers 
     1.0000   1.0000   1.0000   1.0000   1.0000   1.0000   1.0036   1.0120
    -0.0155  -0.0094  -0.0000  -0.0000

          k = 0.5844-0.0482-0.0371 (  1527 PWs)   bands (ev):

    -8.9985  -8.9761  -7.1372  -7.1227  -4.8572  -4.8464   3.3599   3.6032
     6.0786   6.1986  15.5586  15.6461

     occupation numbers 
     1.0000   1.0000   1.0000   1.0000   1.0000   1.0000   1.0036   1.0120
    -0.0155  -0.0094  -0.0000  -0.0000

          k =-0.3340-0.4820-0.0741 (  1528 PWs)   bands (ev):

    -8.9959  -8.9788  -7.1354  -7.1243  -4.8561  -4.8479   3.3879   3.5743
     6.0916   6.1835  15.4555  15.5469

     occupation numbers 
     1.0000   1.0000   1.0000   1.0000   1.0000   1.0000   1.0042   1.0106
    -0.0148  -0.0101  -0.0000  -0.0000

          k = 0.5844-0.0482-0.0741 (  1528 PWs)   bands (ev):

    -8.9958  -8.9788  -7.1355  -7.1245  -4.8560  -4.8477   3.3881   3.5745
     6.0913   6.1832  15.4556  15.5471

     occupation numbers 
     1.0000   1.0000   1.0000   1.0000   1.0000   1.0000   1.0042   1.0106
    -0.0148  -0.0101  -0.0000  -0.0000

          k =-0.3340-0.4820-0.1112 (  1531 PWs)   bands (ev):

    -8.9920  -8.9827  -7.1328  -7.1268  -4.8543  -4.8498   3.4304   3.5313
     6.1113   6.1611  15.3932  15.4484

     occupation numbers 
     1.0000   1.0000   1.0000   1.0000   1.0000   1.0000   1.0053   1.0087
    -0.0137  -0.0111  -0.0000  -0.0000

          k = 0.5844-0.0482-0.1112 (  1531 PWs)   bands (ev):

    -8.9919  -8.9827  -7.1330  -7.1270  -4.8541  -4.8496   3.4306   3.5315
     6.1110   6.1607  15.3933  15.4485

     occupation numbers 
     1.0000   1.0000   1.0000   1.0000   1.0000   1.0000   1.0053   1.0087
    -0.0137  -0.0111  -0.0000  -0.0000

          k =-0.3340-0.4820 0.1483 (  1536 PWs)   bands (ev):

    -8.9874  -8.9874  -7.1298  -7.1298  -4.8520  -4.8520   3.4808   3.4808
     6.1356   6.1356  15.3911  15.3911

     occupation numbers 
     1.0000   1.0000   1.0000   1.0000   1.0000   1.0000   1.0069   1.0069
    -0.0124  -0.0124  -0.0000  -0.0000

          k = 0.5844-0.0482 0.1483 (  1536 PWs)   bands (ev):

    -8.9873  -8.9873  -7.1300  -7.1300  -4.8518  -4.8518   3.4810   3.4810
     6.1353   6.1353  15.3913  15.3914

     occupation numbers 
     1.0000   1.0000   1.0000   1.0000   1.0000   1.0000   1.0069   1.0069
    -0.0124  -0.0124  -0.0000  -0.0000

          k =-0.3757-0.5061 0.0000 (  1525 PWs)   bands (ev):

    -8.5087  -8.4955  -7.6337  -7.6273  -4.9336  -4.9211   3.7268   3.8905
     5.7934   5.7966  15.7442  16.0491

     occupation numbers 
     1.0000   1.0000   1.0000   1.0000   1.0000   1.0000   1.0192   1.0301
    -0.0333  -0.0332  -0.0000  -0.0000

          k =-0.3757-0.5061-0.0371 (  1521 PWs)   bands (ev):

    -8.5082  -8.4960  -7.6335  -7.6276  -4.9331  -4.9216   3.7336   3.8850
     5.7923   5.7951  15.6866  15.8973

     occupation numbers 
     1.0000   1.0000   1.0000   1.0000   1.0000   1.0000   1.0197   1.0297
    -0.0334  -0.0333  -0.0000  -0.0000

          k =-0.3757-0.5061-0.0741 (  1529 PWs)   bands (ev):

    -8.5067  -8.4974  -7.6329  -7.6284  -4.9318  -4.9229   3.7529   3.8690
     5.7897   5.7914  15.5787  15.6832

     occupation numbers 
     1.0000   1.0000   1.0000   1.0000   1.0000   1.0000   1.0209   1.0287
    -0.0335  -0.0334  -0.0000  -0.0000

          k =-0.3757-0.5061-0.1112 (  1535 PWs)   bands (ev):

    -8.5046  -8.4995  -7.6319  -7.6295  -4.9298  -4.9249   3.7811   3.8440
     5.7871   5.7878  15.4966  15.5375

     occupation numbers 
     1.0000   1.0000   1.0000   1.0000   1.0000   1.0000   1.0228   1.0271
    -0.0336  -0.0336  -0.0000  -0.0000

          k =-0.3757-0.5061 0.1483 (  1538 PWs)   bands (ev):

    -8.5020  -8.5020  -7.6307  -7.6307  -4.9274  -4.9274   3.8132   3.8132
     5.7861   5.7861  15.4771  15.4771

     occupation numbers 
     1.0000   1.0000   1.0000   1.0000   1.0000   1.0000   1.0250   1.0250
    -0.0337  -0.0337  -0.0000  -0.0000

          k = 0.5844 0.0000 0.0000 (  1529 PWs)   bands (ev):

    -9.0202  -8.9953  -6.8429  -6.8323  -5.1947  -5.1877   3.3893   3.6795
     6.0544   6.2027  15.5483  15.5768

     occupation numbers 
     1.0000   1.0000   1.0000   1.0000   1.0000   1.0000   1.0043   1.0162
    -0.0170  -0.0092  -0.0000  -0.0000

          k = 0.5844 0.0000-0.0371 (  1526 PWs)   bands (ev):

    -9.0193  -8.9962  -6.8425  -6.8327  -5.1944  -5.1879   3.4000   3.6681
     6.0599   6.1969  15.4929  15.5104

     occupation numbers 
     1.0000   1.0000   1.0000   1.0000   1.0000   1.0000   1.0045   1.0156
    -0.0166  -0.0095  -0.0000  -0.0000

          k = 0.5844 0.0000-0.0741 (  1527 PWs)   bands (ev):

    -9.0166  -8.9990  -6.8413  -6.8338  -5.1937  -5.1887   3.4306   3.6358
     6.0755   6.1803  15.3700  15.4227

     occupation numbers 
     1.0000   1.0000   1.0000   1.0000   1.0000   1.0000   1.0053   1.0137
    -0.0157  -0.0102  -0.0000  -0.0000

          k = 0.5844 0.0000-0.1112 (  1533 PWs)   bands (ev):

    -9.0125  -9.0030  -6.8396  -6.8356  -5.1926  -5.1899   3.4769   3.5880
     6.0991   6.1558  15.2957  15.3350

     occupation numbers 
     1.0000   1.0000   1.0000   1.0000   1.0000   1.0000   1.0067   1.0113
    -0.0143  -0.0114  -0.0000  -0.0000

          k = 0.5844 0.0000 0.1483 (  1528 PWs)   bands (ev):

    -9.0078  -9.0078  -6.8376  -6.8376  -5.1912  -5.1912   3.5321   3.5321
     6.1273   6.1273  15.2857  15.2857

     occupation numbers 
     1.0000   1.0000   1.0000   1.0000   1.0000   1.0000   1.0088   1.0088
    -0.0128  -0.0128  -0.0000  -0.0000

          k =-0.3340-0.5302 0.0000 (  1525 PWs)   bands (ev):

    -8.3448  -8.3256  -7.3934  -7.3823  -5.4898  -5.4816   4.0537   4.2620
     5.4404   5.5663  15.5399  15.7664

     occupation numbers 
     1.0000   1.0000   1.0000   1.0000   1.0000   1.0000   1.0354   1.0111
     0.0017  -0.0270  -0.0000  -0.0000

          k = 0.6262-0.0241 0.0000 (  1525 PWs)   bands (ev):

    -8.3447  -8.3255  -7.3937  -7.3825  -5.4897  -5.4815   4.0540   4.2623
     5.4402   5.5659  15.5399  15.7665

     occupation numbers 
     1.0000   1.0000   1.0000   1.0000   1.0000   1.0000   1.0354   1.0110
     0.0018  -0.0269  -0.0000  -0.0000

          k =-0.3340-0.5302-0.0371 (  1524 PWs)   bands (ev):

    -8.3441  -8.3264  -7.3930  -7.3827  -5.4895  -5.4819   4.0620   4.2546
     5.4444   5.5606  15.4973  15.6598

     occupation numbers 
     1.0000   1.0000   1.0000   1.0000   1.0000   1.0000   1.0353   1.0129
     0.0004  -0.0262  -0.0000  -0.0000

          k = 0.6262-0.0241-0.0371 (  1524 PWs)   bands (ev):

    -8.3440  -8.3263  -7.3932  -7.3830  -5.4894  -5.4818   4.0623   4.2548
     5.4442   5.5602  15.4973  15.6598

     occupation numbers 
     1.0000   1.0000   1.0000   1.0000   1.0000   1.0000   1.0353   1.0129
     0.0005  -0.0262  -0.0000  -0.0000

          k =-0.3340-0.5302-0.0741 (  1526 PWs)   bands (ev):

    -8.3420  -8.3284  -7.3918  -7.3839  -5.4887  -5.4829   4.0855   4.2331
     5.4561   5.5449  15.4061  15.4853

     occupation numbers 
     1.0000   1.0000   1.0000   1.0000   1.0000   1.0000   1.0347   1.0178
    -0.0033  -0.0238  -0.0000  -0.0000

          k = 0.6262-0.0241-0.0741 (  1526 PWs)   bands (ev):

    -8.3419  -8.3283  -7.3920  -7.3842  -5.4885  -5.4827   4.0857   4.2334
     5.4559   5.5446  15.4061  15.4854

     occupation numbers 
     1.0000   1.0000   1.0000   1.0000   1.0000   1.0000   1.0347   1.0178
    -0.0032  -0.0238  -0.0000  -0.0000

          k =-0.3340-0.5302-0.1112 (  1540 PWs)   bands (ev):

    -8.3389  -8.3316  -7.3900  -7.3858  -5.4874  -5.4842   4.1202   4.2003
     5.4745   5.5225  15.3285  15.3583

     occupation numbers 
     1.0000   1.0000   1.0000   1.0000   1.0000   1.0000   1.0329   1.0239
    -0.0086  -0.0198  -0.0000  -0.0000

          k = 0.6262-0.0241-0.1112 (  1540 PWs)   bands (ev):

    -8.3388  -8.3315  -7.3903  -7.3860  -5.4872  -5.4841   4.1205   4.2005
     5.4742   5.5221  15.3286  15.3583

     occupation numbers 
     1.0000   1.0000   1.0000   1.0000   1.0000   1.0000   1.0329   1.0239
    -0.0085  -0.0197  -0.0000  -0.0000

          k =-0.3340-0.5302 0.1483 (  1542 PWs)   bands (ev):

    -8.3353  -8.3353  -7.3879  -7.3879  -5.4858  -5.4858   4.1607   4.1607
     5.4977   5.4977  15.3062  15.3062

     occupation numbers 
     1.0000   1.0000   1.0000   1.0000   1.0000   1.0000   1.0293   1.0293
    -0.0144  -0.0144  -0.0000  -0.0000

          k = 0.6262-0.0241 0.1483 (  1542 PWs)   bands (ev):

    -8.3352  -8.3352  -7.3882  -7.3882  -5.4856  -5.4856   4.1609   4.1609
     5.4974   5.4974  15.3063  15.3063

     occupation numbers 
     1.0000   1.0000   1.0000   1.0000   1.0000   1.0000   1.0293   1.0293
    -0.0144  -0.0144  -0.0000  -0.0000

     the Fermi energy is     4.8730 ev

!    total energy              =     -49.71426174 Ry
     estimated scf accuracy    <          2.6E-10 Ry
     smearing contrib. (-TS)   =       0.00094975 Ry
     internal energy E=F+TS    =     -49.71521148 Ry

     The total energy is F=E-TS. E is the sum of the following terms:
     one-electron contribution =     -30.04880185 Ry
     hartree contribution      =      21.82752727 Ry
     xc contribution           =     -18.55488956 Ry
     ewald contribution        =     -22.93904734 Ry

     convergence has been achieved in   7 iterations

     Forces acting on atoms (cartesian axes, Ry/au):

     atom    1 type  1   force =     0.00000000    0.00011394    0.00000000
     atom    2 type  1   force =     0.00000000   -0.00011394    0.00000000
     atom    3 type  1   force =     0.00000000   -0.00011319    0.00000000
     atom    4 type  1   force =     0.00000000    0.00011319    0.00000000
     The non-local contrib.  to forces
     atom    1 type  1   force =    -0.00000000    0.00010078    0.00000000
     atom    2 type  1   force =     0.00000000   -0.00010078    0.00000000
     atom    3 type  1   force =     0.00000000   -0.00010060    0.00000000
     atom    4 type  1   force =    -0.00000000    0.00010060    0.00000000
     The ionic contribution  to forces
     atom    1 type  1   force =     0.00000000    0.00037531   -0.00000000
     atom    2 type  1   force =    -0.00000000   -0.00037531    0.00000000
     atom    3 type  1   force =    -0.00000000   -0.00037532    0.00000000
     atom    4 type  1   force =    -0.00000000    0.00037532    0.00000000
     The local contribution  to forces
     atom    1 type  1   force =     0.00000000   -0.00035933    0.00000000
     atom    2 type  1   force =    -0.00000000    0.00035933   -0.00000000
     atom    3 type  1   force =    -0.00000000    0.00035921    0.00000000
     atom    4 type  1   force =     0.00000000   -0.00035921   -0.00000000
     The core correction contribution to forces
     atom    1 type  1   force =     0.00000000   -0.00000272    0.00000000
     atom    2 type  1   force =     0.00000000    0.00000272   -0.00000000
     atom    3 type  1   force =     0.00000000    0.00000349   -0.00000000
     atom    4 type  1   force =    -0.00000000   -0.00000349   -0.00000000
     The Hubbard contrib.    to forces
     atom    1 type  1   force =     0.00000000    0.00000000    0.00000000
     atom    2 type  1   force =     0.00000000    0.00000000    0.00000000
     atom    3 type  1   force =     0.00000000    0.00000000    0.00000000
     atom    4 type  1   force =     0.00000000    0.00000000    0.00000000
     The SCF correction term to forces
     atom    1 type  1   force =     0.00000000   -0.00000010   -0.00000000
     atom    2 type  1   force =    -0.00000000    0.00000010   -0.00000000
     atom    3 type  1   force =     0.00000000    0.00000002   -0.00000000
     atom    4 type  1   force =    -0.00000000   -0.00000002    0.00000000

     Total force =     0.000227     Total SCF correction =     0.000000


     Computing stress (Cartesian axis) and pressure

          total   stress  (Ry/bohr**3)                   (kbar)     P=       -0.29
  -0.00000307   0.00000000   0.00000000           -0.45        0.00        0.00
   0.00000000  -0.00000368  -0.00000000            0.00       -0.54       -0.00
   0.00000000  -0.00000000   0.00000078            0.00       -0.00        0.12

     kinetic stress (kbar)   9321.54      0.00      0.00
                                0.00   9321.80      0.00
                                0.00      0.00  10580.37

     local   stress (kbar) -26993.58     -0.00     -0.00
                               -0.00 -26991.90     -0.00
                               -0.00     -0.00  27339.13

     nonloc. stress (kbar)   1809.16     -0.00      0.00
                               -0.00   1809.10      0.00
                                0.00      0.00   1661.45

     hartree stress (kbar)  10023.79     -0.00      0.00
                               -0.00  10023.55      0.00
                                0.00      0.00  -9195.78

     exc-cor stress (kbar)   -167.73      0.00     -0.00
                                0.00   -167.74     -0.00
                               -0.00     -0.00   -273.09

     corecor stress (kbar)  -2245.20      0.00     -0.00
                                0.00  -2245.19     -0.00
                               -0.00     -0.00  -2206.39

     ewald   stress (kbar)   8251.58      0.00     -0.00
                                0.00   8249.84      0.00
                               -0.00      0.00 -27905.58

     hubbard stress (kbar)      0.00      0.00      0.00
                                0.00      0.00      0.00
                                0.00      0.00      0.00

     DFT-D   stress (kbar)      0.00      0.00      0.00
                                0.00      0.00      0.00
                                0.00      0.00      0.00

     XDM     stress (kbar)      0.00      0.00      0.00
                                0.00      0.00      0.00
                                0.00      0.00      0.00

     dft-nl  stress (kbar)      0.00      0.00      0.00
                                0.00      0.00      0.00
                                0.00      0.00      0.00

     TS-vdW  stress (kbar)      0.00      0.00      0.00
                                0.00      0.00      0.00
                                0.00      0.00      0.00



     Writing output data file ./tmp/C_k24.save/

     init_run     :     28.88s CPU     31.23s WALL (       1 calls)
     electrons    :    328.83s CPU    338.30s WALL (       1 calls)
     forces       :     19.19s CPU     20.35s WALL (       1 calls)
     stress       :     37.11s CPU     37.90s WALL (       1 calls)

     Called by init_run:
     wfcinit      :     27.45s CPU     29.62s WALL (       1 calls)
     wfcinit:atom :      0.89s CPU      0.96s WALL (     785 calls)
     wfcinit:wfcr :     21.37s CPU     23.14s WALL (     785 calls)
     potinit      :      0.25s CPU      0.27s WALL (       1 calls)
     hinit0       :      0.63s CPU      0.65s WALL (       1 calls)

     Called by electrons:
     c_bands      :    271.56s CPU    279.27s WALL (       7 calls)
     sum_band     :     55.32s CPU     57.02s WALL (       7 calls)
     v_of_rho     :      1.47s CPU      1.51s WALL (       8 calls)
     v_h          :      0.08s CPU      0.08s WALL (       8 calls)
     v_xc         :      2.26s CPU      2.32s WALL (      10 calls)
     newd         :      0.38s CPU      0.42s WALL (       8 calls)
     mix_rho      :      0.09s CPU      0.09s WALL (       7 calls)

     Called by c_bands:
     init_us_2    :     17.13s CPU     17.91s WALL (   13345 calls)
     cegterg      :    254.75s CPU    261.91s WALL (    5495 calls)

     Called by sum_band:
     sum_band:wei :      0.38s CPU      0.38s WALL (       7 calls)
     sum_band:loo :     54.16s CPU     55.84s WALL (       7 calls)
     sum_band:buf :      0.49s CPU      0.54s WALL (    5495 calls)
     sum_band:ini :      5.99s CPU      6.16s WALL (    5495 calls)
     sum_band:cal :      4.71s CPU      4.85s WALL (    5495 calls)
     sum_band:bec :      0.16s CPU      0.18s WALL (    5495 calls)
     addusdens    :      0.38s CPU      0.41s WALL (       7 calls)
     addusd:skk   :      0.01s CPU      0.01s WALL (       7 calls)
     addusd:dgemm :      0.07s CPU      0.09s WALL (       7 calls)
     addusd:qvan2 :      0.17s CPU      0.17s WALL (       7 calls)

     Called by *egterg:
     cdiaghg      :      9.58s CPU      9.90s WALL (   24378 calls)
     cegterg:over :     11.63s CPU     11.96s WALL (   18883 calls)
     cegterg:upda :      7.86s CPU      8.11s WALL (   18883 calls)
     cegterg:last :     13.13s CPU     13.50s WALL (   12279 calls)
     h_psi        :    209.88s CPU    216.96s WALL (   25163 calls)
     s_psi        :     12.04s CPU     12.49s WALL (   25163 calls)
     g_psi        :      2.60s CPU      2.68s WALL (   18883 calls)

     Called by h_psi:
     h_psi:calbec :     13.64s CPU     14.16s WALL (   25163 calls)
     vloc_psi     :    180.91s CPU    186.95s WALL (   25163 calls)
     add_vuspsi   :     13.01s CPU     13.47s WALL (   25163 calls)

     General routines
     calbec       :     28.41s CPU     29.66s WALL (   34583 calls)
     fft          :      1.14s CPU      1.16s WALL (     127 calls)
     ffts         :      0.02s CPU      0.02s WALL (      15 calls)
     fftw         :    176.94s CPU    183.13s WALL (  447076 calls)
     interpolate  :      0.07s CPU      0.08s WALL (       8 calls)

     Parallel routines

     PWSCF        :   6m55.00s CPU   7m10.57s WALL


   This run was terminated on:  22:54:23  26May2022            

=------------------------------------------------------------------------------=
   JOB DONE.
=------------------------------------------------------------------------------=
