
     Program PWSCF v.6.7MaX starts on 26May2022 at 22:35:38 

     This program is part of the open-source Quantum ESPRESSO suite
     for quantum simulation of materials; please cite
         "P. Giannozzi et al., J. Phys.:Condens. Matter 21 395502 (2009);
         "P. Giannozzi et al., J. Phys.:Condens. Matter 29 465901 (2017);
          URL http://www.quantum-espresso.org", 
     in publications or presentations arising from this work. More details at
     http://www.quantum-espresso.org/quote

     Parallel version (MPI), running on     1 processors

     MPI processes distributed on     1 nodes
     Waiting for input...
     Reading input from standard input

     Current dimensions of program PWSCF are:
     Max number of different atomic species (ntypx) = 10
     Max number of k-points (npk) =  40000
     Max angular momentum in pseudopotentials (lmaxx) =  3

     Subspace diagonalization in iterative solution of the eigenvalue problem:
     a serial algorithm will be used

     Message from routine setup:
     using ibrav=0 with symmetry is DISCOURAGED, use correct ibrav instead

     G-vector sticks info
     --------------------
     sticks:   dense  smooth     PW     G-vecs:    dense   smooth      PW
     Sum         547     265     85                34133    11995    2223



     bravais-lattice index     =            0
     lattice parameter (alat)  =       4.6676  a.u.
     unit-cell volume          =     295.8966 (a.u.)^3
     number of atoms/cell      =            4
     number of atomic types    =            1
     number of electrons       =        16.00
     number of Kohn-Sham states=           12
     kinetic-energy cutoff     =      45.0000  Ry
     charge density cutoff     =     360.0000  Ry
     scf convergence threshold =      1.0E-09
     mixing beta               =       0.7000
     number of iterations used =            8  plain     mixing
     Exchange-correlation= PBE
                           (   1   4   3   4   0   0   0)

     celldm(1)=   4.667624  celldm(2)=   0.000000  celldm(3)=   0.000000
     celldm(4)=   0.000000  celldm(5)=   0.000000  celldm(6)=   0.000000

     crystal axes: (cart. coord. in units of alat)
               a(1) = (   0.998113   0.000000   0.000000 )  
               a(2) = (  -0.499057   0.864391   0.000000 )  
               a(3) = (   0.000000   0.000000   3.372580 )  

     reciprocal axes: (cart. coord. in units 2 pi/alat)
               b(1) = (  1.001890  0.578442 -0.000000 )  
               b(2) = (  0.000000  1.156883  0.000000 )  
               b(3) = (  0.000000 -0.000000  0.296509 )  


     PseudoPot. # 1 for C  read from file:
     /home/max/Desktop/graphite_DFT/Pseudo/C.pbe-n-rrkjus_psl.1.0.0.UPF
     MD5 check sum: 1fdd950c42eb37d8afe3dd2f8d12311e
     Pseudo is Ultrasoft + core correction, Zval =  4.0
     Generated using &quot;atomic&quot; code by A. Dal Corso  v.6.3MaX
     Using radial grid of 1073 points,  4 beta functions with: 
                l(1) =   0
                l(2) =   0
                l(3) =   1
                l(4) =   1
     Q(r) pseudized with 0 coefficients 


     atomic species   valence    mass     pseudopotential
        C              4.00    12.01100     C ( 1.00)

      8 Sym. Ops., with inversion, found ( 4 have fractional translation)


                                    s                        frac. trans.

      isym =  1     identity                                     

 cryst.   s( 1) = (     1          0          0      )
                  (     0          1          0      )
                  (     0          0          1      )

 cart.    s( 1) = (  1.0000000  0.0000000  0.0000000 )
                  (  0.0000000  1.0000000  0.0000000 )
                  (  0.0000000  0.0000000  1.0000000 )


      isym =  2     180 deg rotation - cart. axis [0,0,1]        

 cryst.   s( 2) = (    -1          0          0      )    f =(  0.0000000 )
                  (     0         -1          0      )       (  0.0000000 )
                  (     0          0          1      )       ( -0.5000000 )

 cart.    s( 2) = ( -1.0000000  0.0000000  0.0000000 )    f =(  0.0000000 )
                  (  0.0000000 -1.0000000  0.0000000 )       (  0.0000000 )
                  (  0.0000000  0.0000000  1.0000000 )       ( -1.6862899 )


      isym =  3     180 deg rotation - cart. axis [0,1,0]        

 cryst.   s( 3) = (    -1          0          0      )    f =(  0.0000000 )
                  (     1          1          0      )       (  0.0000000 )
                  (     0          0         -1      )       (  0.5000000 )

 cart.    s( 3) = ( -1.0000000  0.0000000  0.0000000 )    f =(  0.0000000 )
                  (  0.0000000  1.0000000  0.0000000 )       (  0.0000000 )
                  (  0.0000000  0.0000000 -1.0000000 )       (  1.6862899 )


      isym =  4     180 deg rotation - cart. axis [1,0,0]        

 cryst.   s( 4) = (     1          0          0      )
                  (    -1         -1          0      )
                  (     0          0         -1      )

 cart.    s( 4) = (  1.0000000  0.0000000  0.0000000 )
                  (  0.0000000 -1.0000000  0.0000000 )
                  (  0.0000000  0.0000000 -1.0000000 )


      isym =  5     inversion                                    

 cryst.   s( 5) = (    -1          0          0      )
                  (     0         -1          0      )
                  (     0          0         -1      )

 cart.    s( 5) = ( -1.0000000  0.0000000  0.0000000 )
                  (  0.0000000 -1.0000000  0.0000000 )
                  (  0.0000000  0.0000000 -1.0000000 )


      isym =  6     inv. 180 deg rotation - cart. axis [0,0,1]   

 cryst.   s( 6) = (     1          0          0      )    f =(  0.0000000 )
                  (     0          1          0      )       (  0.0000000 )
                  (     0          0         -1      )       (  0.5000000 )

 cart.    s( 6) = (  1.0000000  0.0000000  0.0000000 )    f =(  0.0000000 )
                  (  0.0000000  1.0000000  0.0000000 )       (  0.0000000 )
                  (  0.0000000  0.0000000 -1.0000000 )       (  1.6862899 )


      isym =  7     inv. 180 deg rotation - cart. axis [0,1,0]   

 cryst.   s( 7) = (     1          0          0      )    f =(  0.0000000 )
                  (    -1         -1          0      )       (  0.0000000 )
                  (     0          0          1      )       ( -0.5000000 )

 cart.    s( 7) = (  1.0000000  0.0000000  0.0000000 )    f =(  0.0000000 )
                  (  0.0000000 -1.0000000  0.0000000 )       (  0.0000000 )
                  (  0.0000000  0.0000000  1.0000000 )       ( -1.6862899 )


      isym =  8     inv. 180 deg rotation - cart. axis [1,0,0]   

 cryst.   s( 8) = (    -1          0          0      )
                  (     1          1          0      )
                  (     0          0          1      )

 cart.    s( 8) = ( -1.0000000  0.0000000  0.0000000 )
                  (  0.0000000  1.0000000  0.0000000 )
                  (  0.0000000  0.0000000  1.0000000 )


   Cartesian axes

     site n.     atom                  positions (alat units)
         1           C   tau(   1) = (   0.0000000  -0.0000396   0.8431450  )
         2           C   tau(   2) = (   0.0000000   0.0000396   2.5294349  )
         3           C   tau(   3) = (   0.0000000   0.5762433   0.8431450  )
         4           C   tau(   4) = (   0.4990566   0.2881481   2.5294349  )

   Crystallographic axes

     site n.     atom                  positions (cryst. coord.)
         1           C   tau(   1) = ( -0.0000229 -0.0000458  0.2500000  )
         2           C   tau(   2) = (  0.0000229  0.0000458  0.7500000  )
         3           C   tau(   3) = (  0.3333231  0.6666463  0.2500000  )
         4           C   tau(   4) = (  0.6666769  0.3333537  0.7500000  )

     number of k points=   364  Methfessel-Paxton smearing, width (Ry)=  0.0500
                       cart. coord. in units 2pi/alat
        k(    1) = (   0.0000000   0.0000000   0.0000000), wk =   0.0010288
        k(    2) = (   0.0000000   0.0000000   0.0494182), wk =   0.0020576
        k(    3) = (   0.0000000   0.0000000   0.0988363), wk =   0.0020576
        k(    4) = (   0.0000000   0.0000000  -0.1482545), wk =   0.0010288
        k(    5) = (   0.0000000   0.0642713   0.0000000), wk =   0.0020576
        k(    6) = (   0.0000000   0.0642713   0.0494182), wk =   0.0041152
        k(    7) = (   0.0000000   0.0642713   0.0988363), wk =   0.0041152
        k(    8) = (   0.0000000   0.0642713  -0.1482545), wk =   0.0020576
        k(    9) = (   0.0000000   0.1285426   0.0000000), wk =   0.0020576
        k(   10) = (   0.0000000   0.1285426   0.0494182), wk =   0.0041152
        k(   11) = (   0.0000000   0.1285426   0.0988363), wk =   0.0041152
        k(   12) = (   0.0000000   0.1285426  -0.1482545), wk =   0.0020576
        k(   13) = (   0.0000000   0.1928139   0.0000000), wk =   0.0020576
        k(   14) = (   0.0000000   0.1928139   0.0494182), wk =   0.0041152
        k(   15) = (   0.0000000   0.1928139   0.0988363), wk =   0.0041152
        k(   16) = (   0.0000000   0.1928139  -0.1482545), wk =   0.0020576
        k(   17) = (   0.0000000   0.2570852   0.0000000), wk =   0.0020576
        k(   18) = (   0.0000000   0.2570852   0.0494182), wk =   0.0041152
        k(   19) = (   0.0000000   0.2570852   0.0988363), wk =   0.0041152
        k(   20) = (   0.0000000   0.2570852  -0.1482545), wk =   0.0020576
        k(   21) = (   0.0000000   0.3213565   0.0000000), wk =   0.0020576
        k(   22) = (   0.0000000   0.3213565   0.0494182), wk =   0.0041152
        k(   23) = (   0.0000000   0.3213565   0.0988363), wk =   0.0041152
        k(   24) = (   0.0000000   0.3213565  -0.1482545), wk =   0.0020576
        k(   25) = (   0.0000000   0.3856278   0.0000000), wk =   0.0020576
        k(   26) = (   0.0000000   0.3856278   0.0494182), wk =   0.0041152
        k(   27) = (   0.0000000   0.3856278   0.0988363), wk =   0.0041152
        k(   28) = (   0.0000000   0.3856278  -0.1482545), wk =   0.0020576
        k(   29) = (   0.0000000   0.4498991   0.0000000), wk =   0.0020576
        k(   30) = (   0.0000000   0.4498991   0.0494182), wk =   0.0041152
        k(   31) = (   0.0000000   0.4498991   0.0988363), wk =   0.0041152
        k(   32) = (   0.0000000   0.4498991  -0.1482545), wk =   0.0020576
        k(   33) = (   0.0000000   0.5141704   0.0000000), wk =   0.0020576
        k(   34) = (   0.0000000   0.5141704   0.0494182), wk =   0.0041152
        k(   35) = (   0.0000000   0.5141704   0.0988363), wk =   0.0041152
        k(   36) = (   0.0000000   0.5141704  -0.1482545), wk =   0.0020576
        k(   37) = (   0.0000000  -0.5784417   0.0000000), wk =   0.0010288
        k(   38) = (   0.0000000  -0.5784417   0.0494182), wk =   0.0020576
        k(   39) = (   0.0000000  -0.5784417   0.0988363), wk =   0.0020576
        k(   40) = (   0.0000000  -0.5784417  -0.1482545), wk =   0.0010288
        k(   41) = (   0.0556606   0.0964069   0.0000000), wk =   0.0041152
        k(   42) = (   0.0556606   0.0964069   0.0494182), wk =   0.0082305
        k(   43) = (   0.0556606   0.0964069   0.0988363), wk =   0.0082305
        k(   44) = (   0.0556606   0.0964069  -0.1482545), wk =   0.0041152
        k(   45) = (   0.0556606   0.1606782   0.0000000), wk =   0.0041152
        k(   46) = (   0.0556606   0.1606782   0.0494182), wk =   0.0082305
        k(   47) = (   0.0556606   0.1606782   0.0988363), wk =   0.0082305
        k(   48) = (   0.0556606   0.1606782  -0.1482545), wk =   0.0041152
        k(   49) = (   0.0556606   0.2249495   0.0000000), wk =   0.0041152
        k(   50) = (   0.0556606   0.2249495   0.0494182), wk =   0.0082305
        k(   51) = (   0.0556606   0.2249495   0.0988363), wk =   0.0082305
        k(   52) = (   0.0556606   0.2249495  -0.1482545), wk =   0.0041152
        k(   53) = (   0.0556606   0.2892208   0.0000000), wk =   0.0041152
        k(   54) = (   0.0556606   0.2892208   0.0494182), wk =   0.0082305
        k(   55) = (   0.0556606   0.2892208   0.0988363), wk =   0.0082305
        k(   56) = (   0.0556606   0.2892208  -0.1482545), wk =   0.0041152
        k(   57) = (   0.0556606   0.3534921   0.0000000), wk =   0.0041152
        k(   58) = (   0.0556606   0.3534921   0.0494182), wk =   0.0082305
        k(   59) = (   0.0556606   0.3534921   0.0988363), wk =   0.0082305
        k(   60) = (   0.0556606   0.3534921  -0.1482545), wk =   0.0041152
        k(   61) = (   0.0556606   0.4177634   0.0000000), wk =   0.0041152
        k(   62) = (   0.0556606   0.4177634   0.0494182), wk =   0.0082305
        k(   63) = (   0.0556606   0.4177634   0.0988363), wk =   0.0082305
        k(   64) = (   0.0556606   0.4177634  -0.1482545), wk =   0.0041152
        k(   65) = (   0.0556606   0.4820347   0.0000000), wk =   0.0041152
        k(   66) = (   0.0556606   0.4820347   0.0494182), wk =   0.0082305
        k(   67) = (   0.0556606   0.4820347   0.0988363), wk =   0.0082305
        k(   68) = (   0.0556606   0.4820347  -0.1482545), wk =   0.0041152
        k(   69) = (   0.0556606   0.5463060   0.0000000), wk =   0.0041152
        k(   70) = (   0.0556606   0.5463060   0.0494182), wk =   0.0082305
        k(   71) = (   0.0556606   0.5463060   0.0988363), wk =   0.0082305
        k(   72) = (   0.0556606   0.5463060  -0.1482545), wk =   0.0041152
        k(   73) = (   0.1113212   0.1928139   0.0000000), wk =   0.0041152
        k(   74) = (   0.1113212   0.1928139   0.0494182), wk =   0.0082305
        k(   75) = (   0.1113212   0.1928139   0.0988363), wk =   0.0082305
        k(   76) = (   0.1113212   0.1928139  -0.1482545), wk =   0.0041152
        k(   77) = (   0.1113212   0.2570852   0.0000000), wk =   0.0041152
        k(   78) = (   0.1113212   0.2570852   0.0494182), wk =   0.0082305
        k(   79) = (   0.1113212   0.2570852   0.0988363), wk =   0.0082305
        k(   80) = (   0.1113212   0.2570852  -0.1482545), wk =   0.0041152
        k(   81) = (   0.1113212   0.3213565   0.0000000), wk =   0.0041152
        k(   82) = (   0.1113212   0.3213565   0.0494182), wk =   0.0082305
        k(   83) = (   0.1113212   0.3213565   0.0988363), wk =   0.0082305
        k(   84) = (   0.1113212   0.3213565  -0.1482545), wk =   0.0041152
        k(   85) = (   0.1113212   0.3856278   0.0000000), wk =   0.0041152
        k(   86) = (   0.1113212   0.3856278   0.0494182), wk =   0.0082305
        k(   87) = (   0.1113212   0.3856278   0.0988363), wk =   0.0082305
        k(   88) = (   0.1113212   0.3856278  -0.1482545), wk =   0.0041152
        k(   89) = (   0.1113212   0.4498991   0.0000000), wk =   0.0041152
        k(   90) = (   0.1113212   0.4498991   0.0494182), wk =   0.0082305
        k(   91) = (   0.1113212   0.4498991   0.0988363), wk =   0.0082305
        k(   92) = (   0.1113212   0.4498991  -0.1482545), wk =   0.0041152
        k(   93) = (   0.1113212   0.5141704   0.0000000), wk =   0.0041152
        k(   94) = (   0.1113212   0.5141704   0.0494182), wk =   0.0082305
        k(   95) = (   0.1113212   0.5141704   0.0988363), wk =   0.0082305
        k(   96) = (   0.1113212   0.5141704  -0.1482545), wk =   0.0041152
        k(   97) = (   0.1113212   0.5784417   0.0000000), wk =   0.0020576
        k(   98) = (   0.1113212   0.5784417   0.0494182), wk =   0.0041152
        k(   99) = (   0.1113212   0.5784417   0.0988363), wk =   0.0041152
        k(  100) = (   0.1113212   0.5784417  -0.1482545), wk =   0.0020576
        k(  101) = (   0.1669817   0.2892208   0.0000000), wk =   0.0041152
        k(  102) = (   0.1669817   0.2892208   0.0494182), wk =   0.0082305
        k(  103) = (   0.1669817   0.2892208   0.0988363), wk =   0.0082305
        k(  104) = (   0.1669817   0.2892208  -0.1482545), wk =   0.0041152
        k(  105) = (   0.1669817   0.3534921   0.0000000), wk =   0.0041152
        k(  106) = (   0.1669817   0.3534921   0.0494182), wk =   0.0082305
        k(  107) = (   0.1669817   0.3534921   0.0988363), wk =   0.0082305
        k(  108) = (   0.1669817   0.3534921  -0.1482545), wk =   0.0041152
        k(  109) = (   0.1669817   0.4177634   0.0000000), wk =   0.0041152
        k(  110) = (   0.1669817   0.4177634   0.0494182), wk =   0.0082305
        k(  111) = (   0.1669817   0.4177634   0.0988363), wk =   0.0082305
        k(  112) = (   0.1669817   0.4177634  -0.1482545), wk =   0.0041152
        k(  113) = (   0.1669817   0.4820347   0.0000000), wk =   0.0041152
        k(  114) = (   0.1669817   0.4820347   0.0494182), wk =   0.0082305
        k(  115) = (   0.1669817   0.4820347   0.0988363), wk =   0.0082305
        k(  116) = (   0.1669817   0.4820347  -0.1482545), wk =   0.0041152
        k(  117) = (   0.1669817   0.5463060   0.0000000), wk =   0.0041152
        k(  118) = (   0.1669817   0.5463060   0.0494182), wk =   0.0082305
        k(  119) = (   0.1669817   0.5463060   0.0988363), wk =   0.0082305
        k(  120) = (   0.1669817   0.5463060  -0.1482545), wk =   0.0041152
        k(  121) = (   0.2226423   0.3856278   0.0000000), wk =   0.0041152
        k(  122) = (   0.2226423   0.3856278   0.0494182), wk =   0.0082305
        k(  123) = (   0.2226423   0.3856278   0.0988363), wk =   0.0082305
        k(  124) = (   0.2226423   0.3856278  -0.1482545), wk =   0.0041152
        k(  125) = (   0.2226423   0.4498991   0.0000000), wk =   0.0041152
        k(  126) = (   0.2226423   0.4498991   0.0494182), wk =   0.0082305
        k(  127) = (   0.2226423   0.4498991   0.0988363), wk =   0.0082305
        k(  128) = (   0.2226423   0.4498991  -0.1482545), wk =   0.0041152
        k(  129) = (   0.2226423   0.5141704   0.0000000), wk =   0.0041152
        k(  130) = (   0.2226423   0.5141704   0.0494182), wk =   0.0082305
        k(  131) = (   0.2226423   0.5141704   0.0988363), wk =   0.0082305
        k(  132) = (   0.2226423   0.5141704  -0.1482545), wk =   0.0041152
        k(  133) = (   0.2226423   0.5784417   0.0000000), wk =   0.0020576
        k(  134) = (   0.2226423   0.5784417   0.0494182), wk =   0.0041152
        k(  135) = (   0.2226423   0.5784417   0.0988363), wk =   0.0041152
        k(  136) = (   0.2226423   0.5784417  -0.1482545), wk =   0.0020576
        k(  137) = (   0.2783029   0.4820347   0.0000000), wk =   0.0041152
        k(  138) = (   0.2783029   0.4820347   0.0494182), wk =   0.0082305
        k(  139) = (   0.2783029   0.4820347   0.0988363), wk =   0.0082305
        k(  140) = (   0.2783029   0.4820347  -0.1482545), wk =   0.0041152
        k(  141) = (   0.2783029   0.5463060   0.0000000), wk =   0.0041152
        k(  142) = (   0.2783029   0.5463060   0.0494182), wk =   0.0082305
        k(  143) = (   0.2783029   0.5463060   0.0988363), wk =   0.0082305
        k(  144) = (   0.2783029   0.5463060  -0.1482545), wk =   0.0041152
        k(  145) = (   0.3339635   0.5784417   0.0000000), wk =   0.0020576
        k(  146) = (   0.3339635   0.5784417   0.0494182), wk =   0.0041152
        k(  147) = (   0.3339635   0.5784417   0.0988363), wk =   0.0041152
        k(  148) = (   0.3339635   0.5784417  -0.1482545), wk =   0.0020576
        k(  149) = (  -0.0556606  -0.0321356   0.0000000), wk =   0.0041152
        k(  150) = (  -0.0556606  -0.0321356  -0.0494182), wk =   0.0082305
        k(  151) = (  -0.0556606  -0.0321356  -0.0988363), wk =   0.0082305
        k(  152) = (  -0.0556606  -0.0321356   0.1482545), wk =   0.0041152
        k(  153) = (  -0.1113212  -0.0642713   0.0000000), wk =   0.0041152
        k(  154) = (  -0.1113212  -0.0642713  -0.0494182), wk =   0.0082305
        k(  155) = (  -0.1113212  -0.0642713  -0.0988363), wk =   0.0082305
        k(  156) = (  -0.1113212  -0.0642713   0.1482545), wk =   0.0041152
        k(  157) = (  -0.1669817  -0.0964069   0.0000000), wk =   0.0041152
        k(  158) = (  -0.1669817  -0.0964069  -0.0494182), wk =   0.0082305
        k(  159) = (  -0.1669817  -0.0964069  -0.0988363), wk =   0.0082305
        k(  160) = (  -0.1669817  -0.0964069   0.1482545), wk =   0.0041152
        k(  161) = (  -0.2226423  -0.1285426   0.0000000), wk =   0.0041152
        k(  162) = (  -0.2226423  -0.1285426  -0.0494182), wk =   0.0082305
        k(  163) = (  -0.2226423  -0.1285426  -0.0988363), wk =   0.0082305
        k(  164) = (  -0.2226423  -0.1285426   0.1482545), wk =   0.0041152
        k(  165) = (  -0.2783029  -0.1606782   0.0000000), wk =   0.0041152
        k(  166) = (  -0.2783029  -0.1606782  -0.0494182), wk =   0.0082305
        k(  167) = (  -0.2783029  -0.1606782  -0.0988363), wk =   0.0082305
        k(  168) = (  -0.2783029  -0.1606782   0.1482545), wk =   0.0041152
        k(  169) = (  -0.3339635  -0.1928139   0.0000000), wk =   0.0041152
        k(  170) = (  -0.3339635  -0.1928139  -0.0494182), wk =   0.0082305
        k(  171) = (  -0.3339635  -0.1928139  -0.0988363), wk =   0.0082305
        k(  172) = (  -0.3339635  -0.1928139   0.1482545), wk =   0.0041152
        k(  173) = (  -0.3896240  -0.2249495   0.0000000), wk =   0.0041152
        k(  174) = (  -0.3896240  -0.2249495  -0.0494182), wk =   0.0082305
        k(  175) = (  -0.3896240  -0.2249495  -0.0988363), wk =   0.0082305
        k(  176) = (  -0.3896240  -0.2249495   0.1482545), wk =   0.0041152
        k(  177) = (  -0.4452846  -0.2570852   0.0000000), wk =   0.0041152
        k(  178) = (  -0.4452846  -0.2570852  -0.0494182), wk =   0.0082305
        k(  179) = (  -0.4452846  -0.2570852  -0.0988363), wk =   0.0082305
        k(  180) = (  -0.4452846  -0.2570852   0.1482545), wk =   0.0041152
        k(  181) = (   0.5009452   0.2892208   0.0000000), wk =   0.0020576
        k(  182) = (   0.5009452   0.2892208  -0.0494182), wk =   0.0041152
        k(  183) = (   0.5009452   0.2892208  -0.0988363), wk =   0.0041152
        k(  184) = (   0.5009452   0.2892208   0.1482545), wk =   0.0020576
        k(  185) = (   0.1113212   0.0000000   0.0000000), wk =   0.0020576
        k(  186) = (   0.1113212   0.0000000  -0.0494182), wk =   0.0041152
        k(  187) = (   0.1113212   0.0000000  -0.0988363), wk =   0.0041152
        k(  188) = (   0.1113212   0.0000000   0.1482545), wk =   0.0020576
        k(  189) = (  -0.1113212  -0.1285426   0.0000000), wk =   0.0041152
        k(  190) = (   0.1669817  -0.0321356   0.0000000), wk =   0.0041152
        k(  191) = (  -0.1113212  -0.1285426  -0.0494182), wk =   0.0082305
        k(  192) = (   0.1669817  -0.0321356  -0.0494182), wk =   0.0082305
        k(  193) = (  -0.1113212  -0.1285426  -0.0988363), wk =   0.0082305
        k(  194) = (   0.1669817  -0.0321356  -0.0988363), wk =   0.0082305
        k(  195) = (  -0.1113212  -0.1285426   0.1482545), wk =   0.0041152
        k(  196) = (   0.1669817  -0.0321356   0.1482545), wk =   0.0041152
        k(  197) = (  -0.1669817  -0.1606782   0.0000000), wk =   0.0041152
        k(  198) = (   0.2226423  -0.0642713   0.0000000), wk =   0.0041152
        k(  199) = (  -0.1669817  -0.1606782  -0.0494182), wk =   0.0082305
        k(  200) = (   0.2226423  -0.0642713  -0.0494182), wk =   0.0082305
        k(  201) = (  -0.1669817  -0.1606782  -0.0988363), wk =   0.0082305
        k(  202) = (   0.2226423  -0.0642713  -0.0988363), wk =   0.0082305
        k(  203) = (  -0.1669817  -0.1606782   0.1482545), wk =   0.0041152
        k(  204) = (   0.2226423  -0.0642713   0.1482545), wk =   0.0041152
        k(  205) = (  -0.2226423  -0.1928139   0.0000000), wk =   0.0041152
        k(  206) = (   0.2783029  -0.0964069   0.0000000), wk =   0.0041152
        k(  207) = (  -0.2226423  -0.1928139  -0.0494182), wk =   0.0082305
        k(  208) = (   0.2783029  -0.0964069  -0.0494182), wk =   0.0082305
        k(  209) = (  -0.2226423  -0.1928139  -0.0988363), wk =   0.0082305
        k(  210) = (   0.2783029  -0.0964069  -0.0988363), wk =   0.0082305
        k(  211) = (  -0.2226423  -0.1928139   0.1482545), wk =   0.0041152
        k(  212) = (   0.2783029  -0.0964069   0.1482545), wk =   0.0041152
        k(  213) = (  -0.2783029  -0.2249495   0.0000000), wk =   0.0041152
        k(  214) = (   0.3339635  -0.1285426   0.0000000), wk =   0.0041152
        k(  215) = (  -0.2783029  -0.2249495  -0.0494182), wk =   0.0082305
        k(  216) = (   0.3339635  -0.1285426  -0.0494182), wk =   0.0082305
        k(  217) = (  -0.2783029  -0.2249495  -0.0988363), wk =   0.0082305
        k(  218) = (   0.3339635  -0.1285426  -0.0988363), wk =   0.0082305
        k(  219) = (  -0.2783029  -0.2249495   0.1482545), wk =   0.0041152
        k(  220) = (   0.3339635  -0.1285426   0.1482545), wk =   0.0041152
        k(  221) = (  -0.3339635  -0.2570852   0.0000000), wk =   0.0041152
        k(  222) = (   0.3896240  -0.1606782   0.0000000), wk =   0.0041152
        k(  223) = (  -0.3339635  -0.2570852  -0.0494182), wk =   0.0082305
        k(  224) = (   0.3896240  -0.1606782  -0.0494182), wk =   0.0082305
        k(  225) = (  -0.3339635  -0.2570852  -0.0988363), wk =   0.0082305
        k(  226) = (   0.3896240  -0.1606782  -0.0988363), wk =   0.0082305
        k(  227) = (  -0.3339635  -0.2570852   0.1482545), wk =   0.0041152
        k(  228) = (   0.3896240  -0.1606782   0.1482545), wk =   0.0041152
        k(  229) = (  -0.3896240  -0.2892208   0.0000000), wk =   0.0041152
        k(  230) = (   0.4452846  -0.1928139   0.0000000), wk =   0.0041152
        k(  231) = (  -0.3896240  -0.2892208  -0.0494182), wk =   0.0082305
        k(  232) = (   0.4452846  -0.1928139  -0.0494182), wk =   0.0082305
        k(  233) = (  -0.3896240  -0.2892208  -0.0988363), wk =   0.0082305
        k(  234) = (   0.4452846  -0.1928139  -0.0988363), wk =   0.0082305
        k(  235) = (  -0.3896240  -0.2892208   0.1482545), wk =   0.0041152
        k(  236) = (   0.4452846  -0.1928139   0.1482545), wk =   0.0041152
        k(  237) = (  -0.4452846  -0.3213565   0.0000000), wk =   0.0041152
        k(  238) = (   0.5009452  -0.2249495   0.0000000), wk =   0.0041152
        k(  239) = (  -0.4452846  -0.3213565  -0.0494182), wk =   0.0082305
        k(  240) = (   0.5009452  -0.2249495  -0.0494182), wk =   0.0082305
        k(  241) = (  -0.4452846  -0.3213565  -0.0988363), wk =   0.0082305
        k(  242) = (   0.5009452  -0.2249495  -0.0988363), wk =   0.0082305
        k(  243) = (  -0.4452846  -0.3213565   0.1482545), wk =   0.0041152
        k(  244) = (   0.5009452  -0.2249495   0.1482545), wk =   0.0041152
        k(  245) = (   0.2226423   0.0000000   0.0000000), wk =   0.0020576
        k(  246) = (   0.2226423   0.0000000  -0.0494182), wk =   0.0041152
        k(  247) = (   0.2226423   0.0000000  -0.0988363), wk =   0.0041152
        k(  248) = (   0.2226423   0.0000000   0.1482545), wk =   0.0020576
        k(  249) = (  -0.1669817  -0.2249495   0.0000000), wk =   0.0041152
        k(  250) = (   0.2783029  -0.0321356   0.0000000), wk =   0.0041152
        k(  251) = (  -0.1669817  -0.2249495  -0.0494182), wk =   0.0082305
        k(  252) = (   0.2783029  -0.0321356  -0.0494182), wk =   0.0082305
        k(  253) = (  -0.1669817  -0.2249495  -0.0988363), wk =   0.0082305
        k(  254) = (   0.2783029  -0.0321356  -0.0988363), wk =   0.0082305
        k(  255) = (  -0.1669817  -0.2249495   0.1482545), wk =   0.0041152
        k(  256) = (   0.2783029  -0.0321356   0.1482545), wk =   0.0041152
        k(  257) = (  -0.2226423  -0.2570852   0.0000000), wk =   0.0041152
        k(  258) = (   0.3339635  -0.0642713   0.0000000), wk =   0.0041152
        k(  259) = (  -0.2226423  -0.2570852  -0.0494182), wk =   0.0082305
        k(  260) = (   0.3339635  -0.0642713  -0.0494182), wk =   0.0082305
        k(  261) = (  -0.2226423  -0.2570852  -0.0988363), wk =   0.0082305
        k(  262) = (   0.3339635  -0.0642713  -0.0988363), wk =   0.0082305
        k(  263) = (  -0.2226423  -0.2570852   0.1482545), wk =   0.0041152
        k(  264) = (   0.3339635  -0.0642713   0.1482545), wk =   0.0041152
        k(  265) = (  -0.2783029  -0.2892208   0.0000000), wk =   0.0041152
        k(  266) = (   0.3896240  -0.0964069   0.0000000), wk =   0.0041152
        k(  267) = (  -0.2783029  -0.2892208  -0.0494182), wk =   0.0082305
        k(  268) = (   0.3896240  -0.0964069  -0.0494182), wk =   0.0082305
        k(  269) = (  -0.2783029  -0.2892208  -0.0988363), wk =   0.0082305
        k(  270) = (   0.3896240  -0.0964069  -0.0988363), wk =   0.0082305
        k(  271) = (  -0.2783029  -0.2892208   0.1482545), wk =   0.0041152
        k(  272) = (   0.3896240  -0.0964069   0.1482545), wk =   0.0041152
        k(  273) = (  -0.3339635  -0.3213565   0.0000000), wk =   0.0041152
        k(  274) = (   0.4452846  -0.1285426   0.0000000), wk =   0.0041152
        k(  275) = (  -0.3339635  -0.3213565  -0.0494182), wk =   0.0082305
        k(  276) = (   0.4452846  -0.1285426  -0.0494182), wk =   0.0082305
        k(  277) = (  -0.3339635  -0.3213565  -0.0988363), wk =   0.0082305
        k(  278) = (   0.4452846  -0.1285426  -0.0988363), wk =   0.0082305
        k(  279) = (  -0.3339635  -0.3213565   0.1482545), wk =   0.0041152
        k(  280) = (   0.4452846  -0.1285426   0.1482545), wk =   0.0041152
        k(  281) = (  -0.3896240  -0.3534921   0.0000000), wk =   0.0041152
        k(  282) = (   0.5009452  -0.1606782   0.0000000), wk =   0.0041152
        k(  283) = (  -0.3896240  -0.3534921  -0.0494182), wk =   0.0082305
        k(  284) = (   0.5009452  -0.1606782  -0.0494182), wk =   0.0082305
        k(  285) = (  -0.3896240  -0.3534921  -0.0988363), wk =   0.0082305
        k(  286) = (   0.5009452  -0.1606782  -0.0988363), wk =   0.0082305
        k(  287) = (  -0.3896240  -0.3534921   0.1482545), wk =   0.0041152
        k(  288) = (   0.5009452  -0.1606782   0.1482545), wk =   0.0041152
        k(  289) = (  -0.4452846  -0.3856278   0.0000000), wk =   0.0041152
        k(  290) = (  -0.4452846  -0.3856278  -0.0494182), wk =   0.0082305
        k(  291) = (  -0.4452846  -0.3856278  -0.0988363), wk =   0.0082305
        k(  292) = (  -0.4452846  -0.3856278   0.1482545), wk =   0.0041152
        k(  293) = (   0.3339635  -0.0000000   0.0000000), wk =   0.0020576
        k(  294) = (   0.3339635  -0.0000000  -0.0494182), wk =   0.0041152
        k(  295) = (   0.3339635  -0.0000000  -0.0988363), wk =   0.0041152
        k(  296) = (   0.3339635  -0.0000000   0.1482545), wk =   0.0020576
        k(  297) = (  -0.2226423  -0.3213565   0.0000000), wk =   0.0041152
        k(  298) = (   0.3896240  -0.0321356   0.0000000), wk =   0.0041152
        k(  299) = (  -0.2226423  -0.3213565  -0.0494182), wk =   0.0082305
        k(  300) = (   0.3896240  -0.0321356  -0.0494182), wk =   0.0082305
        k(  301) = (  -0.2226423  -0.3213565  -0.0988363), wk =   0.0082305
        k(  302) = (   0.3896240  -0.0321356  -0.0988363), wk =   0.0082305
        k(  303) = (  -0.2226423  -0.3213565   0.1482545), wk =   0.0041152
        k(  304) = (   0.3896240  -0.0321356   0.1482545), wk =   0.0041152
        k(  305) = (  -0.2783029  -0.3534921   0.0000000), wk =   0.0041152
        k(  306) = (   0.4452846  -0.0642713   0.0000000), wk =   0.0041152
        k(  307) = (  -0.2783029  -0.3534921  -0.0494182), wk =   0.0082305
        k(  308) = (   0.4452846  -0.0642713  -0.0494182), wk =   0.0082305
        k(  309) = (  -0.2783029  -0.3534921  -0.0988363), wk =   0.0082305
        k(  310) = (   0.4452846  -0.0642713  -0.0988363), wk =   0.0082305
        k(  311) = (  -0.2783029  -0.3534921   0.1482545), wk =   0.0041152
        k(  312) = (   0.4452846  -0.0642713   0.1482545), wk =   0.0041152
        k(  313) = (  -0.3339635  -0.3856278   0.0000000), wk =   0.0041152
        k(  314) = (   0.5009452  -0.0964069   0.0000000), wk =   0.0041152
        k(  315) = (  -0.3339635  -0.3856278  -0.0494182), wk =   0.0082305
        k(  316) = (   0.5009452  -0.0964069  -0.0494182), wk =   0.0082305
        k(  317) = (  -0.3339635  -0.3856278  -0.0988363), wk =   0.0082305
        k(  318) = (   0.5009452  -0.0964069  -0.0988363), wk =   0.0082305
        k(  319) = (  -0.3339635  -0.3856278   0.1482545), wk =   0.0041152
        k(  320) = (   0.5009452  -0.0964069   0.1482545), wk =   0.0041152
        k(  321) = (  -0.3896240  -0.4177634   0.0000000), wk =   0.0041152
        k(  322) = (   0.5566058  -0.1285426   0.0000000), wk =   0.0041152
        k(  323) = (  -0.3896240  -0.4177634  -0.0494182), wk =   0.0082305
        k(  324) = (   0.5566058  -0.1285426  -0.0494182), wk =   0.0082305
        k(  325) = (  -0.3896240  -0.4177634  -0.0988363), wk =   0.0082305
        k(  326) = (   0.5566058  -0.1285426  -0.0988363), wk =   0.0082305
        k(  327) = (  -0.3896240  -0.4177634   0.1482545), wk =   0.0041152
        k(  328) = (   0.5566058  -0.1285426   0.1482545), wk =   0.0041152
        k(  329) = (   0.4452846   0.0000000   0.0000000), wk =   0.0020576
        k(  330) = (   0.4452846   0.0000000  -0.0494182), wk =   0.0041152
        k(  331) = (   0.4452846   0.0000000  -0.0988363), wk =   0.0041152
        k(  332) = (   0.4452846   0.0000000   0.1482545), wk =   0.0020576
        k(  333) = (  -0.2783029  -0.4177634   0.0000000), wk =   0.0041152
        k(  334) = (   0.5009452  -0.0321356   0.0000000), wk =   0.0041152
        k(  335) = (  -0.2783029  -0.4177634  -0.0494182), wk =   0.0082305
        k(  336) = (   0.5009452  -0.0321356  -0.0494182), wk =   0.0082305
        k(  337) = (  -0.2783029  -0.4177634  -0.0988363), wk =   0.0082305
        k(  338) = (   0.5009452  -0.0321356  -0.0988363), wk =   0.0082305
        k(  339) = (  -0.2783029  -0.4177634   0.1482545), wk =   0.0041152
        k(  340) = (   0.5009452  -0.0321356   0.1482545), wk =   0.0041152
        k(  341) = (  -0.3339635  -0.4498991   0.0000000), wk =   0.0041152
        k(  342) = (   0.5566058  -0.0642713   0.0000000), wk =   0.0041152
        k(  343) = (  -0.3339635  -0.4498991  -0.0494182), wk =   0.0082305
        k(  344) = (   0.5566058  -0.0642713  -0.0494182), wk =   0.0082305
        k(  345) = (  -0.3339635  -0.4498991  -0.0988363), wk =   0.0082305
        k(  346) = (   0.5566058  -0.0642713  -0.0988363), wk =   0.0082305
        k(  347) = (  -0.3339635  -0.4498991   0.1482545), wk =   0.0041152
        k(  348) = (   0.5566058  -0.0642713   0.1482545), wk =   0.0041152
        k(  349) = (  -0.3896240  -0.4820347   0.0000000), wk =   0.0041152
        k(  350) = (  -0.3896240  -0.4820347  -0.0494182), wk =   0.0082305
        k(  351) = (  -0.3896240  -0.4820347  -0.0988363), wk =   0.0082305
        k(  352) = (  -0.3896240  -0.4820347   0.1482545), wk =   0.0041152
        k(  353) = (   0.5566058   0.0000000   0.0000000), wk =   0.0020576
        k(  354) = (   0.5566058   0.0000000  -0.0494182), wk =   0.0041152
        k(  355) = (   0.5566058   0.0000000  -0.0988363), wk =   0.0041152
        k(  356) = (   0.5566058   0.0000000   0.1482545), wk =   0.0020576
        k(  357) = (  -0.3339635  -0.5141704   0.0000000), wk =   0.0041152
        k(  358) = (   0.6122663  -0.0321356   0.0000000), wk =   0.0041152
        k(  359) = (  -0.3339635  -0.5141704  -0.0494182), wk =   0.0082305
        k(  360) = (   0.6122663  -0.0321356  -0.0494182), wk =   0.0082305
        k(  361) = (  -0.3339635  -0.5141704  -0.0988363), wk =   0.0082305
        k(  362) = (   0.6122663  -0.0321356  -0.0988363), wk =   0.0082305
        k(  363) = (  -0.3339635  -0.5141704   0.1482545), wk =   0.0041152
        k(  364) = (   0.6122663  -0.0321356   0.1482545), wk =   0.0041152

                       cryst. coord.
        k(    1) = (   0.0000000   0.0000000   0.0000000), wk =   0.0010288
        k(    2) = (   0.0000000   0.0000000   0.1666667), wk =   0.0020576
        k(    3) = (   0.0000000   0.0000000   0.3333333), wk =   0.0020576
        k(    4) = (   0.0000000   0.0000000  -0.5000000), wk =   0.0010288
        k(    5) = (   0.0000000   0.0555556   0.0000000), wk =   0.0020576
        k(    6) = (   0.0000000   0.0555556   0.1666667), wk =   0.0041152
        k(    7) = (   0.0000000   0.0555556   0.3333333), wk =   0.0041152
        k(    8) = (   0.0000000   0.0555556  -0.5000000), wk =   0.0020576
        k(    9) = (   0.0000000   0.1111111   0.0000000), wk =   0.0020576
        k(   10) = (   0.0000000   0.1111111   0.1666667), wk =   0.0041152
        k(   11) = (   0.0000000   0.1111111   0.3333333), wk =   0.0041152
        k(   12) = (   0.0000000   0.1111111  -0.5000000), wk =   0.0020576
        k(   13) = (   0.0000000   0.1666667   0.0000000), wk =   0.0020576
        k(   14) = (   0.0000000   0.1666667   0.1666667), wk =   0.0041152
        k(   15) = (   0.0000000   0.1666667   0.3333333), wk =   0.0041152
        k(   16) = (   0.0000000   0.1666667  -0.5000000), wk =   0.0020576
        k(   17) = (   0.0000000   0.2222222   0.0000000), wk =   0.0020576
        k(   18) = (   0.0000000   0.2222222   0.1666667), wk =   0.0041152
        k(   19) = (   0.0000000   0.2222222   0.3333333), wk =   0.0041152
        k(   20) = (   0.0000000   0.2222222  -0.5000000), wk =   0.0020576
        k(   21) = (   0.0000000   0.2777778   0.0000000), wk =   0.0020576
        k(   22) = (   0.0000000   0.2777778   0.1666667), wk =   0.0041152
        k(   23) = (   0.0000000   0.2777778   0.3333333), wk =   0.0041152
        k(   24) = (   0.0000000   0.2777778  -0.5000000), wk =   0.0020576
        k(   25) = (   0.0000000   0.3333333   0.0000000), wk =   0.0020576
        k(   26) = (   0.0000000   0.3333333   0.1666667), wk =   0.0041152
        k(   27) = (   0.0000000   0.3333333   0.3333333), wk =   0.0041152
        k(   28) = (   0.0000000   0.3333333  -0.5000000), wk =   0.0020576
        k(   29) = (   0.0000000   0.3888889   0.0000000), wk =   0.0020576
        k(   30) = (   0.0000000   0.3888889   0.1666667), wk =   0.0041152
        k(   31) = (   0.0000000   0.3888889   0.3333333), wk =   0.0041152
        k(   32) = (   0.0000000   0.3888889  -0.5000000), wk =   0.0020576
        k(   33) = (   0.0000000   0.4444444   0.0000000), wk =   0.0020576
        k(   34) = (   0.0000000   0.4444444   0.1666667), wk =   0.0041152
        k(   35) = (   0.0000000   0.4444444   0.3333333), wk =   0.0041152
        k(   36) = (   0.0000000   0.4444444  -0.5000000), wk =   0.0020576
        k(   37) = (   0.0000000  -0.5000000   0.0000000), wk =   0.0010288
        k(   38) = (   0.0000000  -0.5000000   0.1666667), wk =   0.0020576
        k(   39) = (   0.0000000  -0.5000000   0.3333333), wk =   0.0020576
        k(   40) = (   0.0000000  -0.5000000  -0.5000000), wk =   0.0010288
        k(   41) = (   0.0555556   0.0555556   0.0000000), wk =   0.0041152
        k(   42) = (   0.0555556   0.0555556   0.1666667), wk =   0.0082305
        k(   43) = (   0.0555556   0.0555556   0.3333333), wk =   0.0082305
        k(   44) = (   0.0555556   0.0555556  -0.5000000), wk =   0.0041152
        k(   45) = (   0.0555556   0.1111111   0.0000000), wk =   0.0041152
        k(   46) = (   0.0555556   0.1111111   0.1666667), wk =   0.0082305
        k(   47) = (   0.0555556   0.1111111   0.3333333), wk =   0.0082305
        k(   48) = (   0.0555556   0.1111111  -0.5000000), wk =   0.0041152
        k(   49) = (   0.0555556   0.1666667   0.0000000), wk =   0.0041152
        k(   50) = (   0.0555556   0.1666667   0.1666667), wk =   0.0082305
        k(   51) = (   0.0555556   0.1666667   0.3333333), wk =   0.0082305
        k(   52) = (   0.0555556   0.1666667  -0.5000000), wk =   0.0041152
        k(   53) = (   0.0555556   0.2222222   0.0000000), wk =   0.0041152
        k(   54) = (   0.0555556   0.2222222   0.1666667), wk =   0.0082305
        k(   55) = (   0.0555556   0.2222222   0.3333333), wk =   0.0082305
        k(   56) = (   0.0555556   0.2222222  -0.5000000), wk =   0.0041152
        k(   57) = (   0.0555556   0.2777778   0.0000000), wk =   0.0041152
        k(   58) = (   0.0555556   0.2777778   0.1666667), wk =   0.0082305
        k(   59) = (   0.0555556   0.2777778   0.3333333), wk =   0.0082305
        k(   60) = (   0.0555556   0.2777778  -0.5000000), wk =   0.0041152
        k(   61) = (   0.0555556   0.3333333   0.0000000), wk =   0.0041152
        k(   62) = (   0.0555556   0.3333333   0.1666667), wk =   0.0082305
        k(   63) = (   0.0555556   0.3333333   0.3333333), wk =   0.0082305
        k(   64) = (   0.0555556   0.3333333  -0.5000000), wk =   0.0041152
        k(   65) = (   0.0555556   0.3888889   0.0000000), wk =   0.0041152
        k(   66) = (   0.0555556   0.3888889   0.1666667), wk =   0.0082305
        k(   67) = (   0.0555556   0.3888889   0.3333333), wk =   0.0082305
        k(   68) = (   0.0555556   0.3888889  -0.5000000), wk =   0.0041152
        k(   69) = (   0.0555556   0.4444444   0.0000000), wk =   0.0041152
        k(   70) = (   0.0555556   0.4444444   0.1666667), wk =   0.0082305
        k(   71) = (   0.0555556   0.4444444   0.3333333), wk =   0.0082305
        k(   72) = (   0.0555556   0.4444444  -0.5000000), wk =   0.0041152
        k(   73) = (   0.1111111   0.1111111   0.0000000), wk =   0.0041152
        k(   74) = (   0.1111111   0.1111111   0.1666667), wk =   0.0082305
        k(   75) = (   0.1111111   0.1111111   0.3333333), wk =   0.0082305
        k(   76) = (   0.1111111   0.1111111  -0.5000000), wk =   0.0041152
        k(   77) = (   0.1111111   0.1666667   0.0000000), wk =   0.0041152
        k(   78) = (   0.1111111   0.1666667   0.1666667), wk =   0.0082305
        k(   79) = (   0.1111111   0.1666667   0.3333333), wk =   0.0082305
        k(   80) = (   0.1111111   0.1666667  -0.5000000), wk =   0.0041152
        k(   81) = (   0.1111111   0.2222222   0.0000000), wk =   0.0041152
        k(   82) = (   0.1111111   0.2222222   0.1666667), wk =   0.0082305
        k(   83) = (   0.1111111   0.2222222   0.3333333), wk =   0.0082305
        k(   84) = (   0.1111111   0.2222222  -0.5000000), wk =   0.0041152
        k(   85) = (   0.1111111   0.2777778   0.0000000), wk =   0.0041152
        k(   86) = (   0.1111111   0.2777778   0.1666667), wk =   0.0082305
        k(   87) = (   0.1111111   0.2777778   0.3333333), wk =   0.0082305
        k(   88) = (   0.1111111   0.2777778  -0.5000000), wk =   0.0041152
        k(   89) = (   0.1111111   0.3333333   0.0000000), wk =   0.0041152
        k(   90) = (   0.1111111   0.3333333   0.1666667), wk =   0.0082305
        k(   91) = (   0.1111111   0.3333333   0.3333333), wk =   0.0082305
        k(   92) = (   0.1111111   0.3333333  -0.5000000), wk =   0.0041152
        k(   93) = (   0.1111111   0.3888889   0.0000000), wk =   0.0041152
        k(   94) = (   0.1111111   0.3888889   0.1666667), wk =   0.0082305
        k(   95) = (   0.1111111   0.3888889   0.3333333), wk =   0.0082305
        k(   96) = (   0.1111111   0.3888889  -0.5000000), wk =   0.0041152
        k(   97) = (   0.1111111   0.4444444   0.0000000), wk =   0.0020576
        k(   98) = (   0.1111111   0.4444444   0.1666667), wk =   0.0041152
        k(   99) = (   0.1111111   0.4444444   0.3333333), wk =   0.0041152
        k(  100) = (   0.1111111   0.4444444  -0.5000000), wk =   0.0020576
        k(  101) = (   0.1666667   0.1666667   0.0000000), wk =   0.0041152
        k(  102) = (   0.1666667   0.1666667   0.1666667), wk =   0.0082305
        k(  103) = (   0.1666667   0.1666667   0.3333333), wk =   0.0082305
        k(  104) = (   0.1666667   0.1666667  -0.5000000), wk =   0.0041152
        k(  105) = (   0.1666667   0.2222222   0.0000000), wk =   0.0041152
        k(  106) = (   0.1666667   0.2222222   0.1666667), wk =   0.0082305
        k(  107) = (   0.1666667   0.2222222   0.3333333), wk =   0.0082305
        k(  108) = (   0.1666667   0.2222222  -0.5000000), wk =   0.0041152
        k(  109) = (   0.1666667   0.2777778   0.0000000), wk =   0.0041152
        k(  110) = (   0.1666667   0.2777778   0.1666667), wk =   0.0082305
        k(  111) = (   0.1666667   0.2777778   0.3333333), wk =   0.0082305
        k(  112) = (   0.1666667   0.2777778  -0.5000000), wk =   0.0041152
        k(  113) = (   0.1666667   0.3333333   0.0000000), wk =   0.0041152
        k(  114) = (   0.1666667   0.3333333   0.1666667), wk =   0.0082305
        k(  115) = (   0.1666667   0.3333333   0.3333333), wk =   0.0082305
        k(  116) = (   0.1666667   0.3333333  -0.5000000), wk =   0.0041152
        k(  117) = (   0.1666667   0.3888889   0.0000000), wk =   0.0041152
        k(  118) = (   0.1666667   0.3888889   0.1666667), wk =   0.0082305
        k(  119) = (   0.1666667   0.3888889   0.3333333), wk =   0.0082305
        k(  120) = (   0.1666667   0.3888889  -0.5000000), wk =   0.0041152
        k(  121) = (   0.2222222   0.2222222   0.0000000), wk =   0.0041152
        k(  122) = (   0.2222222   0.2222222   0.1666667), wk =   0.0082305
        k(  123) = (   0.2222222   0.2222222   0.3333333), wk =   0.0082305
        k(  124) = (   0.2222222   0.2222222  -0.5000000), wk =   0.0041152
        k(  125) = (   0.2222222   0.2777778   0.0000000), wk =   0.0041152
        k(  126) = (   0.2222222   0.2777778   0.1666667), wk =   0.0082305
        k(  127) = (   0.2222222   0.2777778   0.3333333), wk =   0.0082305
        k(  128) = (   0.2222222   0.2777778  -0.5000000), wk =   0.0041152
        k(  129) = (   0.2222222   0.3333333   0.0000000), wk =   0.0041152
        k(  130) = (   0.2222222   0.3333333   0.1666667), wk =   0.0082305
        k(  131) = (   0.2222222   0.3333333   0.3333333), wk =   0.0082305
        k(  132) = (   0.2222222   0.3333333  -0.5000000), wk =   0.0041152
        k(  133) = (   0.2222222   0.3888889   0.0000000), wk =   0.0020576
        k(  134) = (   0.2222222   0.3888889   0.1666667), wk =   0.0041152
        k(  135) = (   0.2222222   0.3888889   0.3333333), wk =   0.0041152
        k(  136) = (   0.2222222   0.3888889  -0.5000000), wk =   0.0020576
        k(  137) = (   0.2777778   0.2777778   0.0000000), wk =   0.0041152
        k(  138) = (   0.2777778   0.2777778   0.1666667), wk =   0.0082305
        k(  139) = (   0.2777778   0.2777778   0.3333333), wk =   0.0082305
        k(  140) = (   0.2777778   0.2777778  -0.5000000), wk =   0.0041152
        k(  141) = (   0.2777778   0.3333333   0.0000000), wk =   0.0041152
        k(  142) = (   0.2777778   0.3333333   0.1666667), wk =   0.0082305
        k(  143) = (   0.2777778   0.3333333   0.3333333), wk =   0.0082305
        k(  144) = (   0.2777778   0.3333333  -0.5000000), wk =   0.0041152
        k(  145) = (   0.3333333   0.3333333   0.0000000), wk =   0.0020576
        k(  146) = (   0.3333333   0.3333333   0.1666667), wk =   0.0041152
        k(  147) = (   0.3333333   0.3333333   0.3333333), wk =   0.0041152
        k(  148) = (   0.3333333   0.3333333  -0.5000000), wk =   0.0020576
        k(  149) = (  -0.0555556  -0.0000000   0.0000000), wk =   0.0041152
        k(  150) = (  -0.0555556  -0.0000000  -0.1666667), wk =   0.0082305
        k(  151) = (  -0.0555556  -0.0000000  -0.3333333), wk =   0.0082305
        k(  152) = (  -0.0555556  -0.0000000   0.5000000), wk =   0.0041152
        k(  153) = (  -0.1111111  -0.0000000   0.0000000), wk =   0.0041152
        k(  154) = (  -0.1111111  -0.0000000  -0.1666667), wk =   0.0082305
        k(  155) = (  -0.1111111  -0.0000000  -0.3333333), wk =   0.0082305
        k(  156) = (  -0.1111111  -0.0000000   0.5000000), wk =   0.0041152
        k(  157) = (  -0.1666667  -0.0000000   0.0000000), wk =   0.0041152
        k(  158) = (  -0.1666667  -0.0000000  -0.1666667), wk =   0.0082305
        k(  159) = (  -0.1666667  -0.0000000  -0.3333333), wk =   0.0082305
        k(  160) = (  -0.1666667  -0.0000000   0.5000000), wk =   0.0041152
        k(  161) = (  -0.2222222  -0.0000000   0.0000000), wk =   0.0041152
        k(  162) = (  -0.2222222  -0.0000000  -0.1666667), wk =   0.0082305
        k(  163) = (  -0.2222222  -0.0000000  -0.3333333), wk =   0.0082305
        k(  164) = (  -0.2222222  -0.0000000   0.5000000), wk =   0.0041152
        k(  165) = (  -0.2777778  -0.0000000   0.0000000), wk =   0.0041152
        k(  166) = (  -0.2777778  -0.0000000  -0.1666667), wk =   0.0082305
        k(  167) = (  -0.2777778  -0.0000000  -0.3333333), wk =   0.0082305
        k(  168) = (  -0.2777778  -0.0000000   0.5000000), wk =   0.0041152
        k(  169) = (  -0.3333333  -0.0000000   0.0000000), wk =   0.0041152
        k(  170) = (  -0.3333333  -0.0000000  -0.1666667), wk =   0.0082305
        k(  171) = (  -0.3333333  -0.0000000  -0.3333333), wk =   0.0082305
        k(  172) = (  -0.3333333  -0.0000000   0.5000000), wk =   0.0041152
        k(  173) = (  -0.3888889  -0.0000000   0.0000000), wk =   0.0041152
        k(  174) = (  -0.3888889  -0.0000000  -0.1666667), wk =   0.0082305
        k(  175) = (  -0.3888889  -0.0000000  -0.3333333), wk =   0.0082305
        k(  176) = (  -0.3888889  -0.0000000   0.5000000), wk =   0.0041152
        k(  177) = (  -0.4444444  -0.0000000   0.0000000), wk =   0.0041152
        k(  178) = (  -0.4444444  -0.0000000  -0.1666667), wk =   0.0082305
        k(  179) = (  -0.4444444  -0.0000000  -0.3333333), wk =   0.0082305
        k(  180) = (  -0.4444444  -0.0000000   0.5000000), wk =   0.0041152
        k(  181) = (   0.5000000   0.0000000   0.0000000), wk =   0.0020576
        k(  182) = (   0.5000000   0.0000000  -0.1666667), wk =   0.0041152
        k(  183) = (   0.5000000   0.0000000  -0.3333333), wk =   0.0041152
        k(  184) = (   0.5000000   0.0000000   0.5000000), wk =   0.0020576
        k(  185) = (   0.1111111  -0.0555556   0.0000000), wk =   0.0020576
        k(  186) = (   0.1111111  -0.0555556  -0.1666667), wk =   0.0041152
        k(  187) = (   0.1111111  -0.0555556  -0.3333333), wk =   0.0041152
        k(  188) = (   0.1111111  -0.0555556   0.5000000), wk =   0.0020576
        k(  189) = (  -0.1111111  -0.0555556   0.0000000), wk =   0.0041152
        k(  190) = (   0.1666667  -0.1111111   0.0000000), wk =   0.0041152
        k(  191) = (  -0.1111111  -0.0555556  -0.1666667), wk =   0.0082305
        k(  192) = (   0.1666667  -0.1111111  -0.1666667), wk =   0.0082305
        k(  193) = (  -0.1111111  -0.0555556  -0.3333333), wk =   0.0082305
        k(  194) = (   0.1666667  -0.1111111  -0.3333333), wk =   0.0082305
        k(  195) = (  -0.1111111  -0.0555556   0.5000000), wk =   0.0041152
        k(  196) = (   0.1666667  -0.1111111   0.5000000), wk =   0.0041152
        k(  197) = (  -0.1666667  -0.0555556   0.0000000), wk =   0.0041152
        k(  198) = (   0.2222222  -0.1666667   0.0000000), wk =   0.0041152
        k(  199) = (  -0.1666667  -0.0555556  -0.1666667), wk =   0.0082305
        k(  200) = (   0.2222222  -0.1666667  -0.1666667), wk =   0.0082305
        k(  201) = (  -0.1666667  -0.0555556  -0.3333333), wk =   0.0082305
        k(  202) = (   0.2222222  -0.1666667  -0.3333333), wk =   0.0082305
        k(  203) = (  -0.1666667  -0.0555556   0.5000000), wk =   0.0041152
        k(  204) = (   0.2222222  -0.1666667   0.5000000), wk =   0.0041152
        k(  205) = (  -0.2222222  -0.0555556   0.0000000), wk =   0.0041152
        k(  206) = (   0.2777778  -0.2222222   0.0000000), wk =   0.0041152
        k(  207) = (  -0.2222222  -0.0555556  -0.1666667), wk =   0.0082305
        k(  208) = (   0.2777778  -0.2222222  -0.1666667), wk =   0.0082305
        k(  209) = (  -0.2222222  -0.0555556  -0.3333333), wk =   0.0082305
        k(  210) = (   0.2777778  -0.2222222  -0.3333333), wk =   0.0082305
        k(  211) = (  -0.2222222  -0.0555556   0.5000000), wk =   0.0041152
        k(  212) = (   0.2777778  -0.2222222   0.5000000), wk =   0.0041152
        k(  213) = (  -0.2777778  -0.0555556   0.0000000), wk =   0.0041152
        k(  214) = (   0.3333333  -0.2777778   0.0000000), wk =   0.0041152
        k(  215) = (  -0.2777778  -0.0555556  -0.1666667), wk =   0.0082305
        k(  216) = (   0.3333333  -0.2777778  -0.1666667), wk =   0.0082305
        k(  217) = (  -0.2777778  -0.0555556  -0.3333333), wk =   0.0082305
        k(  218) = (   0.3333333  -0.2777778  -0.3333333), wk =   0.0082305
        k(  219) = (  -0.2777778  -0.0555556   0.5000000), wk =   0.0041152
        k(  220) = (   0.3333333  -0.2777778   0.5000000), wk =   0.0041152
        k(  221) = (  -0.3333333  -0.0555556   0.0000000), wk =   0.0041152
        k(  222) = (   0.3888889  -0.3333333   0.0000000), wk =   0.0041152
        k(  223) = (  -0.3333333  -0.0555556  -0.1666667), wk =   0.0082305
        k(  224) = (   0.3888889  -0.3333333  -0.1666667), wk =   0.0082305
        k(  225) = (  -0.3333333  -0.0555556  -0.3333333), wk =   0.0082305
        k(  226) = (   0.3888889  -0.3333333  -0.3333333), wk =   0.0082305
        k(  227) = (  -0.3333333  -0.0555556   0.5000000), wk =   0.0041152
        k(  228) = (   0.3888889  -0.3333333   0.5000000), wk =   0.0041152
        k(  229) = (  -0.3888889  -0.0555556   0.0000000), wk =   0.0041152
        k(  230) = (   0.4444444  -0.3888889   0.0000000), wk =   0.0041152
        k(  231) = (  -0.3888889  -0.0555556  -0.1666667), wk =   0.0082305
        k(  232) = (   0.4444444  -0.3888889  -0.1666667), wk =   0.0082305
        k(  233) = (  -0.3888889  -0.0555556  -0.3333333), wk =   0.0082305
        k(  234) = (   0.4444444  -0.3888889  -0.3333333), wk =   0.0082305
        k(  235) = (  -0.3888889  -0.0555556   0.5000000), wk =   0.0041152
        k(  236) = (   0.4444444  -0.3888889   0.5000000), wk =   0.0041152
        k(  237) = (  -0.4444444  -0.0555556   0.0000000), wk =   0.0041152
        k(  238) = (   0.5000000  -0.4444444   0.0000000), wk =   0.0041152
        k(  239) = (  -0.4444444  -0.0555556  -0.1666667), wk =   0.0082305
        k(  240) = (   0.5000000  -0.4444444  -0.1666667), wk =   0.0082305
        k(  241) = (  -0.4444444  -0.0555556  -0.3333333), wk =   0.0082305
        k(  242) = (   0.5000000  -0.4444444  -0.3333333), wk =   0.0082305
        k(  243) = (  -0.4444444  -0.0555556   0.5000000), wk =   0.0041152
        k(  244) = (   0.5000000  -0.4444444   0.5000000), wk =   0.0041152
        k(  245) = (   0.2222222  -0.1111111   0.0000000), wk =   0.0020576
        k(  246) = (   0.2222222  -0.1111111  -0.1666667), wk =   0.0041152
        k(  247) = (   0.2222222  -0.1111111  -0.3333333), wk =   0.0041152
        k(  248) = (   0.2222222  -0.1111111   0.5000000), wk =   0.0020576
        k(  249) = (  -0.1666667  -0.1111111   0.0000000), wk =   0.0041152
        k(  250) = (   0.2777778  -0.1666667   0.0000000), wk =   0.0041152
        k(  251) = (  -0.1666667  -0.1111111  -0.1666667), wk =   0.0082305
        k(  252) = (   0.2777778  -0.1666667  -0.1666667), wk =   0.0082305
        k(  253) = (  -0.1666667  -0.1111111  -0.3333333), wk =   0.0082305
        k(  254) = (   0.2777778  -0.1666667  -0.3333333), wk =   0.0082305
        k(  255) = (  -0.1666667  -0.1111111   0.5000000), wk =   0.0041152
        k(  256) = (   0.2777778  -0.1666667   0.5000000), wk =   0.0041152
        k(  257) = (  -0.2222222  -0.1111111   0.0000000), wk =   0.0041152
        k(  258) = (   0.3333333  -0.2222222   0.0000000), wk =   0.0041152
        k(  259) = (  -0.2222222  -0.1111111  -0.1666667), wk =   0.0082305
        k(  260) = (   0.3333333  -0.2222222  -0.1666667), wk =   0.0082305
        k(  261) = (  -0.2222222  -0.1111111  -0.3333333), wk =   0.0082305
        k(  262) = (   0.3333333  -0.2222222  -0.3333333), wk =   0.0082305
        k(  263) = (  -0.2222222  -0.1111111   0.5000000), wk =   0.0041152
        k(  264) = (   0.3333333  -0.2222222   0.5000000), wk =   0.0041152
        k(  265) = (  -0.2777778  -0.1111111   0.0000000), wk =   0.0041152
        k(  266) = (   0.3888889  -0.2777778   0.0000000), wk =   0.0041152
        k(  267) = (  -0.2777778  -0.1111111  -0.1666667), wk =   0.0082305
        k(  268) = (   0.3888889  -0.2777778  -0.1666667), wk =   0.0082305
        k(  269) = (  -0.2777778  -0.1111111  -0.3333333), wk =   0.0082305
        k(  270) = (   0.3888889  -0.2777778  -0.3333333), wk =   0.0082305
        k(  271) = (  -0.2777778  -0.1111111   0.5000000), wk =   0.0041152
        k(  272) = (   0.3888889  -0.2777778   0.5000000), wk =   0.0041152
        k(  273) = (  -0.3333333  -0.1111111   0.0000000), wk =   0.0041152
        k(  274) = (   0.4444444  -0.3333333   0.0000000), wk =   0.0041152
        k(  275) = (  -0.3333333  -0.1111111  -0.1666667), wk =   0.0082305
        k(  276) = (   0.4444444  -0.3333333  -0.1666667), wk =   0.0082305
        k(  277) = (  -0.3333333  -0.1111111  -0.3333333), wk =   0.0082305
        k(  278) = (   0.4444444  -0.3333333  -0.3333333), wk =   0.0082305
        k(  279) = (  -0.3333333  -0.1111111   0.5000000), wk =   0.0041152
        k(  280) = (   0.4444444  -0.3333333   0.5000000), wk =   0.0041152
        k(  281) = (  -0.3888889  -0.1111111   0.0000000), wk =   0.0041152
        k(  282) = (   0.5000000  -0.3888889   0.0000000), wk =   0.0041152
        k(  283) = (  -0.3888889  -0.1111111  -0.1666667), wk =   0.0082305
        k(  284) = (   0.5000000  -0.3888889  -0.1666667), wk =   0.0082305
        k(  285) = (  -0.3888889  -0.1111111  -0.3333333), wk =   0.0082305
        k(  286) = (   0.5000000  -0.3888889  -0.3333333), wk =   0.0082305
        k(  287) = (  -0.3888889  -0.1111111   0.5000000), wk =   0.0041152
        k(  288) = (   0.5000000  -0.3888889   0.5000000), wk =   0.0041152
        k(  289) = (  -0.4444444  -0.1111111   0.0000000), wk =   0.0041152
        k(  290) = (  -0.4444444  -0.1111111  -0.1666667), wk =   0.0082305
        k(  291) = (  -0.4444444  -0.1111111  -0.3333333), wk =   0.0082305
        k(  292) = (  -0.4444444  -0.1111111   0.5000000), wk =   0.0041152
        k(  293) = (   0.3333333  -0.1666667   0.0000000), wk =   0.0020576
        k(  294) = (   0.3333333  -0.1666667  -0.1666667), wk =   0.0041152
        k(  295) = (   0.3333333  -0.1666667  -0.3333333), wk =   0.0041152
        k(  296) = (   0.3333333  -0.1666667   0.5000000), wk =   0.0020576
        k(  297) = (  -0.2222222  -0.1666667   0.0000000), wk =   0.0041152
        k(  298) = (   0.3888889  -0.2222222   0.0000000), wk =   0.0041152
        k(  299) = (  -0.2222222  -0.1666667  -0.1666667), wk =   0.0082305
        k(  300) = (   0.3888889  -0.2222222  -0.1666667), wk =   0.0082305
        k(  301) = (  -0.2222222  -0.1666667  -0.3333333), wk =   0.0082305
        k(  302) = (   0.3888889  -0.2222222  -0.3333333), wk =   0.0082305
        k(  303) = (  -0.2222222  -0.1666667   0.5000000), wk =   0.0041152
        k(  304) = (   0.3888889  -0.2222222   0.5000000), wk =   0.0041152
        k(  305) = (  -0.2777778  -0.1666667   0.0000000), wk =   0.0041152
        k(  306) = (   0.4444444  -0.2777778   0.0000000), wk =   0.0041152
        k(  307) = (  -0.2777778  -0.1666667  -0.1666667), wk =   0.0082305
        k(  308) = (   0.4444444  -0.2777778  -0.1666667), wk =   0.0082305
        k(  309) = (  -0.2777778  -0.1666667  -0.3333333), wk =   0.0082305
        k(  310) = (   0.4444444  -0.2777778  -0.3333333), wk =   0.0082305
        k(  311) = (  -0.2777778  -0.1666667   0.5000000), wk =   0.0041152
        k(  312) = (   0.4444444  -0.2777778   0.5000000), wk =   0.0041152
        k(  313) = (  -0.3333333  -0.1666667   0.0000000), wk =   0.0041152
        k(  314) = (   0.5000000  -0.3333333   0.0000000), wk =   0.0041152
        k(  315) = (  -0.3333333  -0.1666667  -0.1666667), wk =   0.0082305
        k(  316) = (   0.5000000  -0.3333333  -0.1666667), wk =   0.0082305
        k(  317) = (  -0.3333333  -0.1666667  -0.3333333), wk =   0.0082305
        k(  318) = (   0.5000000  -0.3333333  -0.3333333), wk =   0.0082305
        k(  319) = (  -0.3333333  -0.1666667   0.5000000), wk =   0.0041152
        k(  320) = (   0.5000000  -0.3333333   0.5000000), wk =   0.0041152
        k(  321) = (  -0.3888889  -0.1666667   0.0000000), wk =   0.0041152
        k(  322) = (   0.5555556  -0.3888889   0.0000000), wk =   0.0041152
        k(  323) = (  -0.3888889  -0.1666667  -0.1666667), wk =   0.0082305
        k(  324) = (   0.5555556  -0.3888889  -0.1666667), wk =   0.0082305
        k(  325) = (  -0.3888889  -0.1666667  -0.3333333), wk =   0.0082305
        k(  326) = (   0.5555556  -0.3888889  -0.3333333), wk =   0.0082305
        k(  327) = (  -0.3888889  -0.1666667   0.5000000), wk =   0.0041152
        k(  328) = (   0.5555556  -0.3888889   0.5000000), wk =   0.0041152
        k(  329) = (   0.4444444  -0.2222222   0.0000000), wk =   0.0020576
        k(  330) = (   0.4444444  -0.2222222  -0.1666667), wk =   0.0041152
        k(  331) = (   0.4444444  -0.2222222  -0.3333333), wk =   0.0041152
        k(  332) = (   0.4444444  -0.2222222   0.5000000), wk =   0.0020576
        k(  333) = (  -0.2777778  -0.2222222   0.0000000), wk =   0.0041152
        k(  334) = (   0.5000000  -0.2777778   0.0000000), wk =   0.0041152
        k(  335) = (  -0.2777778  -0.2222222  -0.1666667), wk =   0.0082305
        k(  336) = (   0.5000000  -0.2777778  -0.1666667), wk =   0.0082305
        k(  337) = (  -0.2777778  -0.2222222  -0.3333333), wk =   0.0082305
        k(  338) = (   0.5000000  -0.2777778  -0.3333333), wk =   0.0082305
        k(  339) = (  -0.2777778  -0.2222222   0.5000000), wk =   0.0041152
        k(  340) = (   0.5000000  -0.2777778   0.5000000), wk =   0.0041152
        k(  341) = (  -0.3333333  -0.2222222   0.0000000), wk =   0.0041152
        k(  342) = (   0.5555556  -0.3333333   0.0000000), wk =   0.0041152
        k(  343) = (  -0.3333333  -0.2222222  -0.1666667), wk =   0.0082305
        k(  344) = (   0.5555556  -0.3333333  -0.1666667), wk =   0.0082305
        k(  345) = (  -0.3333333  -0.2222222  -0.3333333), wk =   0.0082305
        k(  346) = (   0.5555556  -0.3333333  -0.3333333), wk =   0.0082305
        k(  347) = (  -0.3333333  -0.2222222   0.5000000), wk =   0.0041152
        k(  348) = (   0.5555556  -0.3333333   0.5000000), wk =   0.0041152
        k(  349) = (  -0.3888889  -0.2222222   0.0000000), wk =   0.0041152
        k(  350) = (  -0.3888889  -0.2222222  -0.1666667), wk =   0.0082305
        k(  351) = (  -0.3888889  -0.2222222  -0.3333333), wk =   0.0082305
        k(  352) = (  -0.3888889  -0.2222222   0.5000000), wk =   0.0041152
        k(  353) = (   0.5555556  -0.2777778   0.0000000), wk =   0.0020576
        k(  354) = (   0.5555556  -0.2777778  -0.1666667), wk =   0.0041152
        k(  355) = (   0.5555556  -0.2777778  -0.3333333), wk =   0.0041152
        k(  356) = (   0.5555556  -0.2777778   0.5000000), wk =   0.0020576
        k(  357) = (  -0.3333333  -0.2777778   0.0000000), wk =   0.0041152
        k(  358) = (   0.6111111  -0.3333333   0.0000000), wk =   0.0041152
        k(  359) = (  -0.3333333  -0.2777778  -0.1666667), wk =   0.0082305
        k(  360) = (   0.6111111  -0.3333333  -0.1666667), wk =   0.0082305
        k(  361) = (  -0.3333333  -0.2777778  -0.3333333), wk =   0.0082305
        k(  362) = (   0.6111111  -0.3333333  -0.3333333), wk =   0.0082305
        k(  363) = (  -0.3333333  -0.2777778   0.5000000), wk =   0.0041152
        k(  364) = (   0.6111111  -0.3333333   0.5000000), wk =   0.0041152

     Dense  grid:    34133 G-vectors     FFT dimensions: (  30,  30,  96)

     Smooth grid:    11995 G-vectors     FFT dimensions: (  20,  20,  72)

     Dynamical RAM for                 wfc:       0.28 MB

     Dynamical RAM for     wfc (w. buffer):     100.78 MB

     Dynamical RAM for           str. fact:       0.52 MB

     Dynamical RAM for           local pot:       0.00 MB

     Dynamical RAM for          nlocal pot:       0.74 MB

     Dynamical RAM for                qrad:       0.44 MB

     Dynamical RAM for          rho,v,vnew:       3.54 MB

     Dynamical RAM for               rhoin:       1.18 MB

     Dynamical RAM for            rho*nmix:       8.33 MB

     Dynamical RAM for           G-vectors:       2.04 MB

     Dynamical RAM for          h,s,v(r/c):       0.03 MB

     Dynamical RAM for          <psi|beta>:       0.01 MB

     Dynamical RAM for                 psi:       0.55 MB

     Dynamical RAM for                hpsi:       0.55 MB

     Dynamical RAM for                spsi:       0.55 MB

     Dynamical RAM for      wfcinit/wfcrot:       0.74 MB

     Dynamical RAM for           addusdens:      24.48 MB

     Dynamical RAM for          addusforce:      27.87 MB

     Dynamical RAM for         addusstress:      26.04 MB

     Estimated static dynamical RAM per process >     121.91 MB

     Estimated max dynamical RAM per process >     149.78 MB

     Check: negative core charge=   -0.000011

     Initial potential from superposition of free atoms

     starting charge   15.99983, renormalised to   16.00000
     Starting wfcs are   16 randomized atomic wfcs

     total cpu time spent up to now is       14.0 secs

     Self-consistent Calculation

     iteration #  1     ecut=    45.00 Ry     beta= 0.70
     Davidson diagonalization with overlap
     ethr =  1.00E-02,  avg # of iterations =  2.9

     total cpu time spent up to now is       48.7 secs

     total energy              =     -49.66172873 Ry
     estimated scf accuracy    <       0.38326879 Ry

     iteration #  2     ecut=    45.00 Ry     beta= 0.70
     Davidson diagonalization with overlap
     ethr =  2.40E-03,  avg # of iterations =  2.5

     total cpu time spent up to now is       79.1 secs

     total energy              =     -49.71387543 Ry
     estimated scf accuracy    <       0.00438123 Ry

     iteration #  3     ecut=    45.00 Ry     beta= 0.70
     Davidson diagonalization with overlap
     c_bands:  1 eigenvalues not converged
     c_bands:  1 eigenvalues not converged
     ethr =  2.74E-05,  avg # of iterations =  7.5

     total cpu time spent up to now is      121.5 secs

     total energy              =     -49.71424486 Ry
     estimated scf accuracy    <       0.00031459 Ry

     iteration #  4     ecut=    45.00 Ry     beta= 0.70
     Davidson diagonalization with overlap
     c_bands:  1 eigenvalues not converged
     c_bands:  1 eigenvalues not converged
     c_bands:  1 eigenvalues not converged
     ethr =  1.97E-06,  avg # of iterations =  3.9

     total cpu time spent up to now is      154.8 secs

     total energy              =     -49.71426274 Ry
     estimated scf accuracy    <       0.00000199 Ry

     iteration #  5     ecut=    45.00 Ry     beta= 0.70
     Davidson diagonalization with overlap
     ethr =  1.24E-08,  avg # of iterations =  3.0

     total cpu time spent up to now is      193.2 secs

     total energy              =     -49.71426387 Ry
     estimated scf accuracy    <       0.00000009 Ry

     iteration #  6     ecut=    45.00 Ry     beta= 0.70
     Davidson diagonalization with overlap
     ethr =  5.84E-10,  avg # of iterations =  2.1

     total cpu time spent up to now is      230.6 secs

     total energy              =     -49.71426389 Ry
     estimated scf accuracy    <       0.00000002 Ry

     iteration #  7     ecut=    45.00 Ry     beta= 0.70
     Davidson diagonalization with overlap
     ethr =  1.38E-10,  avg # of iterations =  1.9

     total cpu time spent up to now is      261.2 secs

     End of self-consistent calculation

          k = 0.0000 0.0000 0.0000 (  1485 PWs)   bands (ev):

   -14.7081 -14.6631  -3.0620  -2.5001   1.7693   1.7708   1.7710   1.7725
     7.9889  11.5083  13.1715  13.1727

     occupation numbers 
     1.0000   1.0000   1.0000   1.0000   1.0000   1.0000   1.0000   1.0000
    -0.0000  -0.0000  -0.0000  -0.0000

          k = 0.0000 0.0000 0.0494 (  1491 PWs)   bands (ev):

   -14.7052 -14.6662  -3.0274  -2.5413   1.7694   1.7707   1.7711   1.7724
     8.1519  11.0918  13.1699  13.1721

     occupation numbers 
     1.0000   1.0000   1.0000   1.0000   1.0000   1.0000   1.0000   1.0000
    -0.0000  -0.0000  -0.0000  -0.0000

          k = 0.0000 0.0000 0.0988 (  1462 PWs)   bands (ev):

   -14.6969 -14.6745  -2.9311  -2.6510   1.7698   1.7705   1.7714   1.7721
     8.6220  10.2292  13.1712  13.1741

     occupation numbers 
     1.0000   1.0000   1.0000   1.0000   1.0000   1.0000   1.0000   1.0000
    -0.0000  -0.0000  -0.0000  -0.0000

          k = 0.0000 0.0000-0.1483 (  1450 PWs)   bands (ev):

   -14.6857 -14.6857  -2.7943  -2.7943   1.7701   1.7701   1.7718   1.7718
     9.3451   9.3451  13.1727  13.1740

     occupation numbers 
     1.0000   1.0000   1.0000   1.0000   1.0000   1.0000   1.0000   1.0000
    -0.0000  -0.0000  -0.0000  -0.0000

          k = 0.0000 0.0643 0.0000 (  1469 PWs)   bands (ev):

   -14.6351 -14.5904  -2.9737  -2.4139   1.4735   1.4758   1.6127   1.6147
     8.0836  11.5955  13.2015  13.2172

     occupation numbers 
     1.0000   1.0000   1.0000   1.0000   1.0000   1.0000   1.0000   1.0000
    -0.0000  -0.0000  -0.0000  -0.0000

          k = 0.0000 0.0643 0.0494 (  1475 PWs)   bands (ev):

   -14.6322 -14.5934  -2.9393  -2.4550   1.4736   1.4756   1.6128   1.6145
     8.2463  11.1795  13.2051  13.2166

     occupation numbers 
     1.0000   1.0000   1.0000   1.0000   1.0000   1.0000   1.0000   1.0000
    -0.0000  -0.0000  -0.0000  -0.0000

          k = 0.0000 0.0643 0.0988 (  1468 PWs)   bands (ev):

   -14.6240 -14.6017  -2.8433  -2.5642   1.4741   1.4752   1.6132   1.6142
     8.7153  10.3188  13.2094  13.2150

     occupation numbers 
     1.0000   1.0000   1.0000   1.0000   1.0000   1.0000   1.0000   1.0000
    -0.0000  -0.0000  -0.0000  -0.0000

          k = 0.0000 0.0643-0.1483 (  1456 PWs)   bands (ev):

   -14.6129 -14.6129  -2.7070  -2.7070   1.4746   1.4746   1.6137   1.6137
     9.4367   9.4367  13.2126  13.2126

     occupation numbers 
     1.0000   1.0000   1.0000   1.0000   1.0000   1.0000   1.0000   1.0000
    -0.0000  -0.0000  -0.0000  -0.0000

          k = 0.0000 0.1285 0.0000 (  1481 PWs)   bands (ev):

   -14.4166 -14.3727  -2.7100  -2.1566   0.6562   0.6603   1.1965   1.1994
     8.3681  11.8549  13.2276  13.2644

     occupation numbers 
     1.0000   1.0000   1.0000   1.0000   1.0000   1.0000   1.0000   1.0000
    -0.0000  -0.0000  -0.0000  -0.0000

          k = 0.0000 0.1285 0.0494 (  1491 PWs)   bands (ev):

   -14.4138 -14.3757  -2.6759  -2.1971   0.6565   0.6600   1.1967   1.1992
     8.5296  11.4411  13.2381  13.2635

     occupation numbers 
     1.0000   1.0000   1.0000   1.0000   1.0000   1.0000   1.0000   1.0000
    -0.0000  -0.0000  -0.0000  -0.0000

          k = 0.0000 0.1285 0.0988 (  1486 PWs)   bands (ev):

   -14.4057 -14.3838  -2.5809  -2.3050   0.6572   0.6593   1.1972   1.1987
     8.9953  10.5869  13.2493  13.2608

     occupation numbers 
     1.0000   1.0000   1.0000   1.0000   1.0000   1.0000   1.0000   1.0000
    -0.0000  -0.0000  -0.0000  -0.0000

          k = 0.0000 0.1285-0.1483 (  1490 PWs)   bands (ev):

   -14.3948 -14.3948  -2.4462  -2.4462   0.6582   0.6582   1.1979   1.1979
     9.7115   9.7115  13.2561  13.2561

     occupation numbers 
     1.0000   1.0000   1.0000   1.0000   1.0000   1.0000   1.0000   1.0000
    -0.0000  -0.0000  -0.0000  -0.0000

          k = 0.0000 0.1928 0.0000 (  1495 PWs)   bands (ev):

   -14.0537 -14.0109  -2.2736  -1.7315  -0.5177  -0.5111   0.6365   0.6401
     8.8424  12.2747  13.1534  13.2094

     occupation numbers 
     1.0000   1.0000   1.0000   1.0000   1.0000   1.0000   1.0000   1.0000
    -0.0000  -0.0000  -0.0000  -0.0000

          k = 0.0000 0.1928 0.0494 (  1495 PWs)   bands (ev):

   -14.0508 -14.0138  -2.2402  -1.7711  -0.5172  -0.5115   0.6367   0.6399
     9.0018  11.8675  13.1706  13.2082

     occupation numbers 
     1.0000   1.0000   1.0000   1.0000   1.0000   1.0000   1.0000   1.0000
    -0.0000  -0.0000  -0.0000  -0.0000

          k = 0.0000 0.1928 0.0988 (  1495 PWs)   bands (ev):

   -14.0431 -14.0217  -2.1470  -1.8767  -0.5160  -0.5127   0.6374   0.6392
     9.4612  11.0290  13.1868  13.2039

     occupation numbers 
     1.0000   1.0000   1.0000   1.0000   1.0000   1.0000   1.0000   1.0000
    -0.0000  -0.0000  -0.0000  -0.0000

          k = 0.0000 0.1928-0.1483 (  1490 PWs)   bands (ev):

   -14.0324 -14.0324  -2.0149  -2.0149  -0.5144  -0.5144   0.6383   0.6383
    10.1674  10.1674  13.1968  13.1968

     occupation numbers 
     1.0000   1.0000   1.0000   1.0000   1.0000   1.0000   1.0000   1.0000
    -0.0000  -0.0000  -0.0000  -0.0000

          k = 0.0000 0.2571 0.0000 (  1499 PWs)   bands (ev):

   -13.5481 -13.5071  -1.8921  -1.8823  -1.6707  -1.1453   0.0411   0.0453
     9.5054  12.5982  12.8032  12.9817

     occupation numbers 
     1.0000   1.0000   1.0000   1.0000   1.0000   1.0000   1.0000   1.0000
    -0.0000  -0.0000  -0.0000  -0.0000

          k = 0.0000 0.2571 0.0494 (  1497 PWs)   bands (ev):

   -13.5454 -13.5099  -1.8914  -1.8830  -1.6382  -1.1837   0.0414   0.0450
     9.6609  12.3478  12.7965  12.9579

     occupation numbers 
     1.0000   1.0000   1.0000   1.0000   1.0000   1.0000   1.0000   1.0000
    -0.0000  -0.0000  -0.0000  -0.0000

          k = 0.0000 0.2571 0.0988 (  1500 PWs)   bands (ev):

   -13.5379 -13.5174  -1.8896  -1.8848  -1.5478  -1.2858   0.0421   0.0442
    10.1086  11.6146  12.8117  12.8932

     occupation numbers 
     1.0000   1.0000   1.0000   1.0000   1.0000   1.0000   1.0000   1.0000
    -0.0000  -0.0000  -0.0000  -0.0000

          k = 0.0000 0.2571-0.1483 (  1496 PWs)   bands (ev):

   -13.5277 -13.5277  -1.8872  -1.8872  -1.4196  -1.4196   0.0432   0.0432
    10.7933  10.7933  12.8466  12.8475

     occupation numbers 
     1.0000   1.0000   1.0000   1.0000   1.0000   1.0000   1.0000   1.0000
    -0.0000  -0.0000  -0.0000  -0.0000

          k = 0.0000 0.3214 0.0000 (  1495 PWs)   bands (ev):

   -12.9030 -12.8641  -3.3523  -3.3394  -0.9122  -0.5135  -0.5089  -0.4109
    10.3543  11.2251  11.3782  12.7584

     occupation numbers 
     1.0000   1.0000   1.0000   1.0000   1.0000   1.0000   1.0000   1.0000
    -0.0000  -0.0000  -0.0000  -0.0000

          k = 0.0000 0.3214 0.0494 (  1497 PWs)   bands (ev):

   -12.9004 -12.8668  -3.3515  -3.3402  -0.8811  -0.5132  -0.5092  -0.4473
    10.4960  11.2419  11.3671  12.7443

     occupation numbers 
     1.0000   1.0000   1.0000   1.0000   1.0000   1.0000   1.0000   1.0000
    -0.0000  -0.0000  -0.0000  -0.0000

          k = 0.0000 0.3214 0.0988 (  1495 PWs)   bands (ev):

   -12.8934 -12.8740  -3.3491  -3.3426  -0.7945  -0.5444  -0.5124  -0.5101
    10.8721  11.2668  11.3866  12.4703

     occupation numbers 
     1.0000   1.0000   1.0000   1.0000   1.0000   1.0000   1.0000   1.0000
    -0.0000  -0.0000  -0.0000  -0.0000

          k = 0.0000 0.3214-0.1483 (  1498 PWs)   bands (ev):

   -12.8837 -12.8837  -3.3459  -3.3459  -0.6721  -0.6721  -0.5112  -0.5112
    11.1849  11.1849  11.7624  11.7624

     occupation numbers 
     1.0000   1.0000   1.0000   1.0000   1.0000   1.0000   1.0000   1.0000
    -0.0000  -0.0000  -0.0000  -0.0000

          k = 0.0000 0.3856 0.0000 (  1504 PWs)   bands (ev):

   -12.1234 -12.0871  -4.8214  -4.8050  -0.9796  -0.9748  -0.0193   0.4469
     9.6520   9.8675  11.3797  12.5439

     occupation numbers 
     1.0000   1.0000   1.0000   1.0000   1.0000   1.0000   1.0000   1.0000
    -0.0000  -0.0000  -0.0000  -0.0000

          k = 0.0000 0.3856 0.0494 (  1504 PWs)   bands (ev):

   -12.1210 -12.0896  -4.8203  -4.8061  -0.9793  -0.9751   0.0098   0.4133
     9.6616   9.8490  11.5325  12.5442

     occupation numbers 
     1.0000   1.0000   1.0000   1.0000   1.0000   1.0000   1.0000   1.0000
    -0.0000  -0.0000  -0.0000  -0.0000

          k = 0.0000 0.3856 0.0988 (  1501 PWs)   bands (ev):

   -12.1144 -12.0963  -4.8173  -4.8091  -0.9784  -0.9760   0.0907   0.3234
     9.6927   9.8017  11.9555  12.5368

     occupation numbers 
     1.0000   1.0000   1.0000   1.0000   1.0000   1.0000   1.0000   1.0000
    -0.0000  -0.0000  -0.0000  -0.0000

          k = 0.0000 0.3856-0.1483 (  1500 PWs)   bands (ev):

   -12.1054 -12.1054  -4.8132  -4.8132  -0.9772  -0.9772   0.2048   0.2048
     9.7435   9.7435  12.4394  12.4401

     occupation numbers 
     1.0000   1.0000   1.0000   1.0000   1.0000   1.0000   1.0000   1.0000
    -0.0000  -0.0000  -0.0000  -0.0000

          k = 0.0000 0.4499 0.0000 (  1508 PWs)   bands (ev):

   -11.2187 -11.1856  -6.2444  -6.2247  -1.3285  -1.3235   0.9604   1.3706
     8.1539   8.4153  12.3197  12.3874

     occupation numbers 
     1.0000   1.0000   1.0000   1.0000   1.0000   1.0000   1.0000   1.0000
    -0.0000  -0.0000  -0.0000  -0.0000

          k = 0.0000 0.4499 0.0494 (  1509 PWs)   bands (ev):

   -11.2166 -11.1878  -6.2431  -6.2260  -1.3281  -1.3238   0.9864   1.3414
     8.1683   8.3947  12.3412  12.3910

     occupation numbers 
     1.0000   1.0000   1.0000   1.0000   1.0000   1.0000   1.0000   1.0000
    -0.0000  -0.0000  -0.0000  -0.0000

          k = 0.0000 0.4499 0.0988 (  1508 PWs)   bands (ev):

   -11.2105 -11.1939  -6.2395  -6.2296  -1.3272  -1.3247   1.0582   1.2630
     8.2100   8.3408  12.3673  12.3927

     occupation numbers 
     1.0000   1.0000   1.0000   1.0000   1.0000   1.0000   1.0000   1.0000
    -0.0000  -0.0000  -0.0000  -0.0000

          k = 0.0000 0.4499-0.1483 (  1504 PWs)   bands (ev):

   -11.2022 -11.2022  -6.2346  -6.2346  -1.3260  -1.3260   1.1590   1.1590
     8.2723   8.2723  12.3840  12.3840

     occupation numbers 
     1.0000   1.0000   1.0000   1.0000   1.0000   1.0000   1.0000   1.0000
    -0.0000  -0.0000  -0.0000  -0.0000

          k = 0.0000 0.5142 0.0000 (  1502 PWs)   bands (ev):

   -10.2186 -10.1896  -7.5640  -7.5421  -1.5435  -1.5384   1.8971   2.2016
     6.9346   7.2034  12.2514  12.3139

     occupation numbers 
     1.0000   1.0000   1.0000   1.0000   1.0000   1.0000   1.0000   1.0000
    -0.0001  -0.0000  -0.0000  -0.0000

          k = 0.0000 0.5142 0.0494 (  1507 PWs)   bands (ev):

   -10.2167 -10.1915  -7.5625  -7.5436  -1.5432  -1.5387   1.9171   2.1807
     6.9487   7.1815  12.2556  12.3098

     occupation numbers 
     1.0000   1.0000   1.0000   1.0000   1.0000   1.0000   1.0000   1.0000
    -0.0001  -0.0000  -0.0000  -0.0000

          k = 0.0000 0.5142 0.0988 (  1511 PWs)   bands (ev):

   -10.2114 -10.1969  -7.5585  -7.5476  -1.5422  -1.5397   1.9719   2.1241
     6.9901   7.1246  12.2674  12.2986

     occupation numbers 
     1.0000   1.0000   1.0000   1.0000   1.0000   1.0000   1.0000   1.0000
    -0.0001  -0.0000  -0.0000  -0.0000

          k = 0.0000 0.5142-0.1483 (  1510 PWs)   bands (ev):

   -10.2042 -10.2042  -7.5531  -7.5531  -1.5409  -1.5409   2.0476   2.0476
     7.0535   7.0535  12.2831  12.2831

     occupation numbers 
     1.0000   1.0000   1.0000   1.0000   1.0000   1.0000   1.0000   1.0000
    -0.0000  -0.0000  -0.0000  -0.0000

          k = 0.0000-0.5784 0.0000 (  1508 PWs)   bands (ev):

    -9.4545  -9.4397  -8.4242  -8.4124  -1.6161  -1.6109   2.3836   2.5557
     6.4163   6.6543  12.2141  12.2800

     occupation numbers 
     1.0000   1.0000   1.0000   1.0000   1.0000   1.0000   1.0000   1.0000
    -0.0031  -0.0007  -0.0000  -0.0000

          k = 0.0000-0.5784 0.0494 (  1508 PWs)   bands (ev):

    -9.4536  -9.4407  -8.4235  -8.4132  -1.6157  -1.6113   2.3959   2.5450
     6.4272   6.6333  12.2186  12.2756

     occupation numbers 
     1.0000   1.0000   1.0000   1.0000   1.0000   1.0000   1.0000   1.0000
    -0.0029  -0.0008  -0.0000  -0.0000

          k = 0.0000-0.5784 0.0988 (  1512 PWs)   bands (ev):

    -9.4508  -9.4434  -8.4214  -8.4155  -1.6148  -1.6122   2.4289   2.5151
     6.4607   6.5796  12.2305  12.2634

     occupation numbers 
     1.0000   1.0000   1.0000   1.0000   1.0000   1.0000   1.0000   1.0000
    -0.0024  -0.0011  -0.0000  -0.0000

          k = 0.0000-0.5784-0.1483 (  1512 PWs)   bands (ev):

    -9.4470  -9.4470  -8.4185  -8.4185  -1.6135  -1.6135   2.4728   2.4728
[...]
     8.7319   8.8405  12.6452  14.7638

     occupation numbers 
     1.0000   1.0000   1.0000   1.0000   1.0000   1.0000   1.0000   1.0000
    -0.0000  -0.0000  -0.0000  -0.0000

          k = 0.4453 0.0000-0.0988 (  1514 PWs)   bands (ev):

   -11.2813 -11.2646  -4.8593  -4.8552  -3.3378  -3.3347   1.0525   1.2685
     8.7548   8.8175  13.0154  14.2056

     occupation numbers 
     1.0000   1.0000   1.0000   1.0000   1.0000   1.0000   1.0000   1.0000
    -0.0000  -0.0000  -0.0000  -0.0000

          k = 0.4453 0.0000 0.1483 (  1516 PWs)   bands (ev):

   -11.2730 -11.2730  -4.8573  -4.8573  -3.3362  -3.3362   1.1585   1.1585
     8.7861   8.7861  13.5687  13.5687

     occupation numbers 
     1.0000   1.0000   1.0000   1.0000   1.0000   1.0000   1.0000   1.0000
    -0.0000  -0.0000  -0.0000  -0.0000

          k =-0.2783-0.4178 0.0000 (  1517 PWs)   bands (ev):

   -10.4072 -10.3766  -5.8616  -5.8488  -3.9991  -3.9897   1.9184   2.3014
     7.5478   7.6931  13.7046  15.4819

     occupation numbers 
     1.0000   1.0000   1.0000   1.0000   1.0000   1.0000   1.0000   1.0000
    -0.0000  -0.0000  -0.0000  -0.0000

          k = 0.5009-0.0321 0.0000 (  1517 PWs)   bands (ev):

   -10.4072 -10.3767  -5.8620  -5.8491  -3.9987  -3.9893   1.9186   2.3016
     7.5474   7.6926  13.7046  15.4822

     occupation numbers 
     1.0000   1.0000   1.0000   1.0000   1.0000   1.0000   1.0000   1.0000
    -0.0000  -0.0000  -0.0000  -0.0000

          k =-0.2783-0.4178-0.0494 (  1522 PWs)   bands (ev):

   -10.4052 -10.3787  -5.8608  -5.8496  -3.9985  -3.9904   1.9427   2.2743
     7.5573   7.6831  13.8105  15.3338

     occupation numbers 
     1.0000   1.0000   1.0000   1.0000   1.0000   1.0000   1.0000   1.0000
    -0.0000  -0.0000  -0.0000  -0.0000

          k = 0.5009-0.0321-0.0494 (  1522 PWs)   bands (ev):

   -10.4052 -10.3787  -5.8611  -5.8500  -3.9981  -3.9900   1.9428   2.2745
     7.5569   7.6827  13.8105  15.3340

     occupation numbers 
     1.0000   1.0000   1.0000   1.0000   1.0000   1.0000   1.0000   1.0000
    -0.0000  -0.0000  -0.0000  -0.0000

          k =-0.2783-0.4178-0.0988 (  1524 PWs)   bands (ev):

   -10.3996 -10.3844  -5.8584  -5.8520  -3.9968  -3.9921   2.0099   2.2012
     7.5834   7.6560  14.1053  14.9715

     occupation numbers 
     1.0000   1.0000   1.0000   1.0000   1.0000   1.0000   1.0000   1.0000
    -0.0000  -0.0000  -0.0000  -0.0000

          k = 0.5009-0.0321-0.0988 (  1524 PWs)   bands (ev):

   -10.3996 -10.3844  -5.8588  -5.8523  -3.9964  -3.9917   2.0101   2.2014
     7.5830   7.6556  14.1054  14.9717

     occupation numbers 
     1.0000   1.0000   1.0000   1.0000   1.0000   1.0000   1.0000   1.0000
    -0.0000  -0.0000  -0.0000  -0.0000

          k =-0.2783-0.4178 0.1483 (  1528 PWs)   bands (ev):

   -10.3920 -10.3920  -5.8552  -5.8552  -3.9945  -3.9945   2.1042   2.1042
     7.6195   7.6195  14.5244  14.5244

     occupation numbers 
     1.0000   1.0000   1.0000   1.0000   1.0000   1.0000   1.0000   1.0000
    -0.0000  -0.0000  -0.0000  -0.0000

          k = 0.5009-0.0321 0.1483 (  1528 PWs)   bands (ev):

   -10.3920 -10.3920  -5.8556  -5.8556  -3.9941  -3.9941   2.1043   2.1043
     7.6191   7.6191  14.5245  14.5245

     occupation numbers 
     1.0000   1.0000   1.0000   1.0000   1.0000   1.0000   1.0000   1.0000
    -0.0000  -0.0000  -0.0000  -0.0000

          k =-0.3340-0.4499 0.0000 (  1521 PWs)   bands (ev):

    -9.4400  -9.4135  -6.9753  -6.9578  -4.3405  -4.3286   2.8872   3.1849
     6.4787   6.6275  15.0270  16.1894

     occupation numbers 
     1.0000   1.0000   1.0000   1.0000   1.0000   1.0000   1.0001   1.0012
    -0.0022  -0.0008  -0.0000  -0.0000

          k = 0.5566-0.0643 0.0000 (  1521 PWs)   bands (ev):

    -9.4400  -9.4135  -6.9755  -6.9580  -4.3404  -4.3284   2.8874   3.1850
     6.4785   6.6272  15.0269  16.1896

     occupation numbers 
     1.0000   1.0000   1.0000   1.0000   1.0000   1.0000   1.0001   1.0012
    -0.0022  -0.0008  -0.0000  -0.0000

          k =-0.3340-0.4499-0.0494 (  1524 PWs)   bands (ev):

    -9.4382  -9.4153  -6.9742  -6.9590  -4.3397  -4.3294   2.9066   3.1644
     6.4876   6.6166  15.0691  15.7024

     occupation numbers 
     1.0000   1.0000   1.0000   1.0000   1.0000   1.0000   1.0002   1.0011
    -0.0020  -0.0009  -0.0000  -0.0000

          k = 0.5566-0.0643-0.0494 (  1524 PWs)   bands (ev):

    -9.4382  -9.4153  -6.9743  -6.9592  -4.3396  -4.3292   2.9068   3.1646
     6.4874   6.6162  15.0692  15.7030

     occupation numbers 
     1.0000   1.0000   1.0000   1.0000   1.0000   1.0000   1.0002   1.0011
    -0.0020  -0.0009  -0.0000  -0.0000

          k =-0.3340-0.4499-0.0988 (  1529 PWs)   bands (ev):

    -9.4334  -9.4202  -6.9710  -6.9623  -4.3376  -4.3316   2.9600   3.1089
     6.5128   6.5874  15.1771  15.5120

     occupation numbers 
     1.0000   1.0000   1.0000   1.0000   1.0000   1.0000   1.0003   1.0007
    -0.0017  -0.0011  -0.0000  -0.0000

          k = 0.5566-0.0643-0.0988 (  1529 PWs)   bands (ev):

    -9.4334  -9.4202  -6.9711  -6.9624  -4.3374  -4.3314   2.9602   3.1091
     6.5126   6.5871  15.1773  15.5122

     occupation numbers 
     1.0000   1.0000   1.0000   1.0000   1.0000   1.0000   1.0003   1.0007
    -0.0017  -0.0011  -0.0000  -0.0000

          k =-0.3340-0.4499 0.1483 (  1530 PWs)   bands (ev):

    -9.4268  -9.4268  -6.9666  -6.9666  -4.3346  -4.3346   3.0339   3.0339
     6.5491   6.5491  15.3272  15.3272

     occupation numbers 
     1.0000   1.0000   1.0000   1.0000   1.0000   1.0000   1.0004   1.0004
    -0.0014  -0.0014  -0.0000  -0.0000

          k = 0.5566-0.0643 0.1483 (  1530 PWs)   bands (ev):

    -9.4268  -9.4268  -6.9668  -6.9668  -4.3344  -4.3344   3.0341   3.0341
     6.5488   6.5488  15.3274  15.3274

     occupation numbers 
     1.0000   1.0000   1.0000   1.0000   1.0000   1.0000   1.0004   1.0004
    -0.0014  -0.0014  -0.0000  -0.0000

          k =-0.3896-0.4820 0.0000 (  1519 PWs)   bands (ev):

    -8.7067  -8.6932  -7.7587  -7.7501  -4.4453  -4.4326   3.4473   3.6128
     5.9871   6.0335  15.9635  16.1116

     occupation numbers 
     1.0000   1.0000   1.0000   1.0000   1.0000   1.0000   1.0057   1.0123
    -0.0215  -0.0185  -0.0000  -0.0000

          k =-0.3896-0.4820-0.0494 (  1522 PWs)   bands (ev):

    -8.7058  -8.6941  -7.7581  -7.7508  -4.4444  -4.4335   3.4593   3.6028
     5.9876   6.0281  15.8259  15.9768

     occupation numbers 
     1.0000   1.0000   1.0000   1.0000   1.0000   1.0000   1.0061   1.0118
    -0.0215  -0.0188  -0.0000  -0.0000

          k =-0.3896-0.4820-0.0988 (  1529 PWs)   bands (ev):

    -8.7033  -8.6965  -7.7566  -7.7524  -4.4421  -4.4358   3.4915   3.5746
     5.9910   6.0147  15.6743  15.7230

     occupation numbers 
     1.0000   1.0000   1.0000   1.0000   1.0000   1.0000   1.0071   1.0105
    -0.0213  -0.0197  -0.0000  -0.0000

          k =-0.3896-0.4820 0.1483 (  1542 PWs)   bands (ev):

    -8.6999  -8.6999  -7.7546  -7.7546  -4.4390  -4.4390   3.5340   3.5340
     6.0004   6.0004  15.6281  15.6283

     occupation numbers 
     1.0000   1.0000   1.0000   1.0000   1.0000   1.0000   1.0087   1.0087
    -0.0207  -0.0207  -0.0000  -0.0000

          k = 0.5566 0.0000 0.0000 (  1525 PWs)   bands (ev):

    -9.4949  -9.4678  -6.4877  -6.4776  -4.8760  -4.8687   2.8973   3.2234
     6.5406   6.6851  14.9371  15.5625

     occupation numbers 
     1.0000   1.0000   1.0000   1.0000   1.0000   1.0000   1.0002   1.0016
    -0.0015  -0.0006  -0.0000  -0.0000

          k = 0.5566 0.0000-0.0494 (  1529 PWs)   bands (ev):

    -9.4931  -9.4696  -6.4870  -6.4782  -4.8755  -4.8692   2.9182   3.2006
     6.5501   6.6752  14.9638  15.4872

     occupation numbers 
     1.0000   1.0000   1.0000   1.0000   1.0000   1.0000   1.0002   1.0014
    -0.0014  -0.0006  -0.0000  -0.0000

          k = 0.5566 0.0000-0.0988 (  1527 PWs)   bands (ev):

    -9.4882  -9.4746  -6.4851  -6.4801  -4.8742  -4.8705   2.9761   3.1391
     6.5762   6.6484  15.0385  15.3227

     occupation numbers 
     1.0000   1.0000   1.0000   1.0000   1.0000   1.0000   1.0003   1.0009
    -0.0012  -0.0007  -0.0000  -0.0000

          k = 0.5566 0.0000 0.1483 (  1536 PWs)   bands (ev):

    -9.4814  -9.4814  -6.4826  -6.4826  -4.8724  -4.8724   3.0567   3.0567
     6.6121   6.6121  15.1594  15.1594

     occupation numbers 
     1.0000   1.0000   1.0000   1.0000   1.0000   1.0000   1.0005   1.0005
    -0.0009  -0.0009  -0.0000  -0.0000

          k =-0.3340-0.5142 0.0000 (  1527 PWs)   bands (ev):

    -8.5588  -8.5376  -7.3012  -7.2884  -5.3079  -5.2980   3.8189   4.0458
     5.6561   5.7789  15.5767  15.8946

     occupation numbers 
     1.0000   1.0000   1.0000   1.0000   1.0000   1.0000   1.0252   1.0355
    -0.0344  -0.0341  -0.0000  -0.0000

          k = 0.6123-0.0321 0.0000 (  1527 PWs)   bands (ev):

    -8.5587  -8.5376  -7.3014  -7.2886  -5.3078  -5.2978   3.8191   4.0460
     5.6558   5.7785  15.5768  15.8946

     occupation numbers 
     1.0000   1.0000   1.0000   1.0000   1.0000   1.0000   1.0252   1.0355
    -0.0344  -0.0341  -0.0000  -0.0000

          k =-0.3340-0.5142-0.0494 (  1525 PWs)   bands (ev):

    -8.5574  -8.5391  -7.3003  -7.2893  -5.3073  -5.2987   3.8343   4.0310
     5.6632   5.7695  15.5065  15.6526

     occupation numbers 
     1.0000   1.0000   1.0000   1.0000   1.0000   1.0000   1.0262   1.0354
    -0.0347  -0.0344  -0.0000  -0.0000

          k = 0.6123-0.0321-0.0494 (  1525 PWs)   bands (ev):

    -8.5573  -8.5390  -7.3006  -7.2895  -5.3071  -5.2985   3.8346   4.0312
     5.6629   5.7691  15.5065  15.6527

     occupation numbers 
     1.0000   1.0000   1.0000   1.0000   1.0000   1.0000   1.0262   1.0354
    -0.0347  -0.0344  -0.0000  -0.0000

          k =-0.3340-0.5142-0.0988 (  1532 PWs)   bands (ev):

    -8.5535  -8.5430  -7.2980  -7.2916  -5.3055  -5.3005   3.8764   3.9902
     5.6834   5.7447  15.3872  15.4282

     occupation numbers 
     1.0000   1.0000   1.0000   1.0000   1.0000   1.0000   1.0290   1.0346
    -0.0352  -0.0351  -0.0000  -0.0000

          k = 0.6123-0.0321-0.0988 (  1532 PWs)   bands (ev):

    -8.5534  -8.5429  -7.2982  -7.2919  -5.3053  -5.3003   3.8767   3.9904
     5.6831   5.7444  15.3873  15.4283

     occupation numbers 
     1.0000   1.0000   1.0000   1.0000   1.0000   1.0000   1.0290   1.0346
    -0.0352  -0.0351  -0.0000  -0.0000

          k =-0.3340-0.5142 0.1483 (  1536 PWs)   bands (ev):

    -8.5482  -8.5482  -7.2948  -7.2948  -5.3030  -5.3030   3.9336   3.9336
     5.7129   5.7129  15.3423  15.3423

     occupation numbers 
     1.0000   1.0000   1.0000   1.0000   1.0000   1.0000   1.0323   1.0323
    -0.0355  -0.0355  -0.0000  -0.0000

          k = 0.6123-0.0321 0.1483 (  1536 PWs)   bands (ev):

    -8.5482  -8.5482  -7.2951  -7.2951  -5.3029  -5.3029   3.9339   3.9339
     5.7126   5.7126  15.3425  15.3425

     occupation numbers 
     1.0000   1.0000   1.0000   1.0000   1.0000   1.0000   1.0323   1.0323
    -0.0355  -0.0355  -0.0000  -0.0000

     the Fermi energy is     4.8763 ev

!    total energy              =     -49.71426390 Ry
     estimated scf accuracy    <          2.6E-10 Ry
     smearing contrib. (-TS)   =       0.00094287 Ry
     internal energy E=F+TS    =     -49.71520677 Ry

     The total energy is F=E-TS. E is the sum of the following terms:
     one-electron contribution =     -30.04880177 Ry
     hartree contribution      =      21.82753201 Ry
     xc contribution           =     -18.55488967 Ry
     ewald contribution        =     -22.93904734 Ry

     convergence has been achieved in   7 iterations

     Forces acting on atoms (cartesian axes, Ry/au):

     atom    1 type  1   force =    -0.00000000    0.00011381    0.00000000
     atom    2 type  1   force =     0.00000000   -0.00011381    0.00000000
     atom    3 type  1   force =     0.00000000   -0.00011318    0.00000000
     atom    4 type  1   force =     0.00000000    0.00011318    0.00000000
     The non-local contrib.  to forces
     atom    1 type  1   force =     0.00000000    0.00010084    0.00000000
     atom    2 type  1   force =     0.00000000   -0.00010084    0.00000000
     atom    3 type  1   force =    -0.00000000   -0.00010066    0.00000000
     atom    4 type  1   force =     0.00000000    0.00010066    0.00000000
     The ionic contribution  to forces
     atom    1 type  1   force =     0.00000000    0.00037531   -0.00000000
     atom    2 type  1   force =    -0.00000000   -0.00037531    0.00000000
     atom    3 type  1   force =    -0.00000000   -0.00037532    0.00000000
     atom    4 type  1   force =    -0.00000000    0.00037532    0.00000000
     The local contribution  to forces
     atom    1 type  1   force =     0.00000000   -0.00035967    0.00000000
     atom    2 type  1   force =    -0.00000000    0.00035967   -0.00000000
     atom    3 type  1   force =    -0.00000000    0.00035927    0.00000000
     atom    4 type  1   force =     0.00000000   -0.00035927   -0.00000000
     The core correction contribution to forces
     atom    1 type  1   force =     0.00000000   -0.00000272    0.00000000
     atom    2 type  1   force =     0.00000000    0.00000272   -0.00000000
     atom    3 type  1   force =     0.00000000    0.00000350   -0.00000000
     atom    4 type  1   force =    -0.00000000   -0.00000350   -0.00000000
     The Hubbard contrib.    to forces
     atom    1 type  1   force =     0.00000000    0.00000000    0.00000000
     atom    2 type  1   force =     0.00000000    0.00000000    0.00000000
     atom    3 type  1   force =     0.00000000    0.00000000    0.00000000
     atom    4 type  1   force =     0.00000000    0.00000000    0.00000000
     The SCF correction term to forces
     atom    1 type  1   force =    -0.00000000    0.00000005   -0.00000000
     atom    2 type  1   force =    -0.00000000   -0.00000005    0.00000000
     atom    3 type  1   force =     0.00000000    0.00000004   -0.00000000
     atom    4 type  1   force =    -0.00000000   -0.00000004   -0.00000000

     Total force =     0.000227     Total SCF correction =     0.000000


     Computing stress (Cartesian axis) and pressure

          total   stress  (Ry/bohr**3)                   (kbar)     P=       -0.29
  -0.00000308  -0.00000000   0.00000000           -0.45       -0.00        0.00
  -0.00000000  -0.00000368   0.00000000           -0.00       -0.54        0.00
   0.00000000   0.00000000   0.00000080            0.00        0.00        0.12

     kinetic stress (kbar)   9321.54      0.00      0.00
                                0.00   9321.80      0.00
                                0.00      0.00  10580.38

     local   stress (kbar) -26993.59     -0.00      0.00
                               -0.00 -26991.91      0.00
                                0.00      0.00  27339.14

     nonloc. stress (kbar)   1809.16      0.00      0.00
                                0.00   1809.10     -0.00
                                0.00      0.00   1661.45

     hartree stress (kbar)  10023.79     -0.00      0.00
                               -0.00  10023.56      0.00
                                0.00      0.00  -9195.79

     exc-cor stress (kbar)   -167.73      0.00     -0.00
                                0.00   -167.74     -0.00
                               -0.00     -0.00   -273.09

     corecor stress (kbar)  -2245.20      0.00     -0.00
                                0.00  -2245.19     -0.00
                               -0.00     -0.00  -2206.39

     ewald   stress (kbar)   8251.58      0.00     -0.00
                                0.00   8249.84      0.00
                               -0.00      0.00 -27905.58

     hubbard stress (kbar)      0.00      0.00      0.00
                                0.00      0.00      0.00
                                0.00      0.00      0.00

     DFT-D   stress (kbar)      0.00      0.00      0.00
                                0.00      0.00      0.00
                                0.00      0.00      0.00

     XDM     stress (kbar)      0.00      0.00      0.00
                                0.00      0.00      0.00
                                0.00      0.00      0.00

     dft-nl  stress (kbar)      0.00      0.00      0.00
                                0.00      0.00      0.00
                                0.00      0.00      0.00

     TS-vdW  stress (kbar)      0.00      0.00      0.00
                                0.00      0.00      0.00
                                0.00      0.00      0.00



     Writing output data file ./tmp/C_k18.save/

     init_run     :     13.21s CPU     13.76s WALL (       1 calls)
     electrons    :    238.54s CPU    247.27s WALL (       1 calls)
     forces       :      4.16s CPU      4.29s WALL (       1 calls)
     stress       :     13.67s CPU     13.87s WALL (       1 calls)

     Called by init_run:
     wfcinit      :     11.67s CPU     12.11s WALL (       1 calls)
     wfcinit:atom :      0.34s CPU      0.35s WALL (     364 calls)
     wfcinit:wfcr :      9.14s CPU      9.51s WALL (     364 calls)
     potinit      :      0.42s CPU      0.46s WALL (       1 calls)
     hinit0       :      0.83s CPU      0.86s WALL (       1 calls)

     Called by electrons:
     c_bands      :    200.66s CPU    208.08s WALL (       7 calls)
     sum_band     :     35.63s CPU     36.90s WALL (       7 calls)
     v_of_rho     :      1.79s CPU      1.84s WALL (       8 calls)
     v_h          :      0.07s CPU      0.08s WALL (       8 calls)
     v_xc         :      2.30s CPU      2.35s WALL (      10 calls)
     newd         :      0.54s CPU      0.59s WALL (       8 calls)
     mix_rho      :      0.17s CPU      0.17s WALL (       7 calls)

     Called by c_bands:
     init_us_2    :      8.99s CPU      9.32s WALL (    6188 calls)
     cegterg      :    188.65s CPU    195.57s WALL (    2548 calls)

     Called by sum_band:
     sum_band:wei :      0.27s CPU      0.27s WALL (       7 calls)
     sum_band:loo :     34.37s CPU     35.60s WALL (       7 calls)
     sum_band:buf :      0.35s CPU      0.38s WALL (    2548 calls)
     sum_band:ini :      3.88s CPU      4.01s WALL (    2548 calls)
     sum_band:cal :      3.19s CPU      3.27s WALL (    2548 calls)
     sum_band:bec :      0.11s CPU      0.12s WALL (    2548 calls)
     addusdens    :      0.50s CPU      0.54s WALL (       7 calls)
     addusd:skk   :      0.02s CPU      0.02s WALL (       7 calls)
     addusd:dgemm :      0.13s CPU      0.15s WALL (       7 calls)
     addusd:qvan2 :      0.20s CPU      0.20s WALL (       7 calls)

     Called by *egterg:
     cdiaghg      :      7.05s CPU      7.32s WALL (   11159 calls)
     cegterg:over :      9.26s CPU      9.62s WALL (    8611 calls)
     cegterg:upda :      6.11s CPU      6.34s WALL (    8611 calls)
     cegterg:last :      9.97s CPU     10.27s WALL (    5647 calls)
     h_psi        :    148.98s CPU    154.71s WALL (   11523 calls)
     s_psi        :      8.45s CPU      8.81s WALL (   11523 calls)
     g_psi        :      1.77s CPU      1.84s WALL (    8611 calls)

     Called by h_psi:
     h_psi:calbec :     10.08s CPU     10.45s WALL (   11523 calls)
     vloc_psi     :    127.52s CPU    132.48s WALL (   11523 calls)
     add_vuspsi   :      9.53s CPU      9.92s WALL (   11523 calls)

     General routines
     calbec       :     15.12s CPU     15.72s WALL (   15891 calls)
     fft          :      1.31s CPU      1.34s WALL (     127 calls)
     ffts         :      0.03s CPU      0.03s WALL (      15 calls)
     fftw         :    121.64s CPU    126.60s WALL (  206636 calls)
     interpolate  :      0.09s CPU      0.10s WALL (       8 calls)

     Parallel routines

     PWSCF        :   4m30.23s CPU   4m40.51s WALL


   This run was terminated on:  22:40:18  26May2022            

=------------------------------------------------------------------------------=
   JOB DONE.
=------------------------------------------------------------------------------=
