
     Program PWSCF v.6.7MaX starts on 26May2022 at 22:32:39 

     This program is part of the open-source Quantum ESPRESSO suite
     for quantum simulation of materials; please cite
         "P. Giannozzi et al., J. Phys.:Condens. Matter 21 395502 (2009);
         "P. Giannozzi et al., J. Phys.:Condens. Matter 29 465901 (2017);
          URL http://www.quantum-espresso.org", 
     in publications or presentations arising from this work. More details at
     http://www.quantum-espresso.org/quote

     Parallel version (MPI), running on     1 processors

     MPI processes distributed on     1 nodes
     Waiting for input...
     Reading input from standard input

     Current dimensions of program PWSCF are:
     Max number of different atomic species (ntypx) = 10
     Max number of k-points (npk) =  40000
     Max angular momentum in pseudopotentials (lmaxx) =  3

     Subspace diagonalization in iterative solution of the eigenvalue problem:
     a serial algorithm will be used

     Message from routine setup:
     using ibrav=0 with symmetry is DISCOURAGED, use correct ibrav instead

     G-vector sticks info
     --------------------
     sticks:   dense  smooth     PW     G-vecs:    dense   smooth      PW
     Sum         547     265     85                34133    11995    2223



     bravais-lattice index     =            0
     lattice parameter (alat)  =       4.6676  a.u.
     unit-cell volume          =     295.8966 (a.u.)^3
     number of atoms/cell      =            4
     number of atomic types    =            1
     number of electrons       =        16.00
     number of Kohn-Sham states=           12
     kinetic-energy cutoff     =      45.0000  Ry
     charge density cutoff     =     360.0000  Ry
     scf convergence threshold =      1.0E-09
     mixing beta               =       0.7000
     number of iterations used =            8  plain     mixing
     Exchange-correlation= PBE
                           (   1   4   3   4   0   0   0)

     celldm(1)=   4.667624  celldm(2)=   0.000000  celldm(3)=   0.000000
     celldm(4)=   0.000000  celldm(5)=   0.000000  celldm(6)=   0.000000

     crystal axes: (cart. coord. in units of alat)
               a(1) = (   0.998113   0.000000   0.000000 )  
               a(2) = (  -0.499057   0.864391   0.000000 )  
               a(3) = (   0.000000   0.000000   3.372580 )  

     reciprocal axes: (cart. coord. in units 2 pi/alat)
               b(1) = (  1.001890  0.578442 -0.000000 )  
               b(2) = (  0.000000  1.156883  0.000000 )  
               b(3) = (  0.000000 -0.000000  0.296509 )  


     PseudoPot. # 1 for C  read from file:
     /home/max/Desktop/graphite_DFT/Pseudo/C.pbe-n-rrkjus_psl.1.0.0.UPF
     MD5 check sum: 1fdd950c42eb37d8afe3dd2f8d12311e
     Pseudo is Ultrasoft + core correction, Zval =  4.0
     Generated using &quot;atomic&quot; code by A. Dal Corso  v.6.3MaX
     Using radial grid of 1073 points,  4 beta functions with: 
                l(1) =   0
                l(2) =   0
                l(3) =   1
                l(4) =   1
     Q(r) pseudized with 0 coefficients 


     atomic species   valence    mass     pseudopotential
        C              4.00    12.01100     C ( 1.00)

      8 Sym. Ops., with inversion, found ( 4 have fractional translation)


                                    s                        frac. trans.

      isym =  1     identity                                     

 cryst.   s( 1) = (     1          0          0      )
                  (     0          1          0      )
                  (     0          0          1      )

 cart.    s( 1) = (  1.0000000  0.0000000  0.0000000 )
                  (  0.0000000  1.0000000  0.0000000 )
                  (  0.0000000  0.0000000  1.0000000 )


      isym =  2     180 deg rotation - cart. axis [0,0,1]        

 cryst.   s( 2) = (    -1          0          0      )    f =(  0.0000000 )
                  (     0         -1          0      )       (  0.0000000 )
                  (     0          0          1      )       ( -0.5000000 )

 cart.    s( 2) = ( -1.0000000  0.0000000  0.0000000 )    f =(  0.0000000 )
                  (  0.0000000 -1.0000000  0.0000000 )       (  0.0000000 )
                  (  0.0000000  0.0000000  1.0000000 )       ( -1.6862899 )


      isym =  3     180 deg rotation - cart. axis [0,1,0]        

 cryst.   s( 3) = (    -1          0          0      )    f =(  0.0000000 )
                  (     1          1          0      )       (  0.0000000 )
                  (     0          0         -1      )       (  0.5000000 )

 cart.    s( 3) = ( -1.0000000  0.0000000  0.0000000 )    f =(  0.0000000 )
                  (  0.0000000  1.0000000  0.0000000 )       (  0.0000000 )
                  (  0.0000000  0.0000000 -1.0000000 )       (  1.6862899 )


      isym =  4     180 deg rotation - cart. axis [1,0,0]        

 cryst.   s( 4) = (     1          0          0      )
                  (    -1         -1          0      )
                  (     0          0         -1      )

 cart.    s( 4) = (  1.0000000  0.0000000  0.0000000 )
                  (  0.0000000 -1.0000000  0.0000000 )
                  (  0.0000000  0.0000000 -1.0000000 )


      isym =  5     inversion                                    

 cryst.   s( 5) = (    -1          0          0      )
                  (     0         -1          0      )
                  (     0          0         -1      )

 cart.    s( 5) = ( -1.0000000  0.0000000  0.0000000 )
                  (  0.0000000 -1.0000000  0.0000000 )
                  (  0.0000000  0.0000000 -1.0000000 )


      isym =  6     inv. 180 deg rotation - cart. axis [0,0,1]   

 cryst.   s( 6) = (     1          0          0      )    f =(  0.0000000 )
                  (     0          1          0      )       (  0.0000000 )
                  (     0          0         -1      )       (  0.5000000 )

 cart.    s( 6) = (  1.0000000  0.0000000  0.0000000 )    f =(  0.0000000 )
                  (  0.0000000  1.0000000  0.0000000 )       (  0.0000000 )
                  (  0.0000000  0.0000000 -1.0000000 )       (  1.6862899 )


      isym =  7     inv. 180 deg rotation - cart. axis [0,1,0]   

 cryst.   s( 7) = (     1          0          0      )    f =(  0.0000000 )
                  (    -1         -1          0      )       (  0.0000000 )
                  (     0          0          1      )       ( -0.5000000 )

 cart.    s( 7) = (  1.0000000  0.0000000  0.0000000 )    f =(  0.0000000 )
                  (  0.0000000 -1.0000000  0.0000000 )       (  0.0000000 )
                  (  0.0000000  0.0000000  1.0000000 )       ( -1.6862899 )


      isym =  8     inv. 180 deg rotation - cart. axis [1,0,0]   

 cryst.   s( 8) = (    -1          0          0      )
                  (     1          1          0      )
                  (     0          0          1      )

 cart.    s( 8) = ( -1.0000000  0.0000000  0.0000000 )
                  (  0.0000000  1.0000000  0.0000000 )
                  (  0.0000000  0.0000000  1.0000000 )


   Cartesian axes

     site n.     atom                  positions (alat units)
         1           C   tau(   1) = (   0.0000000  -0.0000396   0.8431450  )
         2           C   tau(   2) = (   0.0000000   0.0000396   2.5294349  )
         3           C   tau(   3) = (   0.0000000   0.5762433   0.8431450  )
         4           C   tau(   4) = (   0.4990566   0.2881481   2.5294349  )

   Crystallographic axes

     site n.     atom                  positions (cryst. coord.)
         1           C   tau(   1) = ( -0.0000229 -0.0000458  0.2500000  )
         2           C   tau(   2) = (  0.0000229  0.0000458  0.7500000  )
         3           C   tau(   3) = (  0.3333231  0.6666463  0.2500000  )
         4           C   tau(   4) = (  0.6666769  0.3333537  0.7500000  )

     number of k points=   129  Methfessel-Paxton smearing, width (Ry)=  0.0500
                       cart. coord. in units 2pi/alat
        k(    1) = (   0.0000000   0.0000000   0.0000000), wk =   0.0034722
        k(    2) = (   0.0000000   0.0000000   0.0741272), wk =   0.0069444
        k(    3) = (   0.0000000   0.0000000  -0.1482545), wk =   0.0034722
        k(    4) = (   0.0000000   0.0964069   0.0000000), wk =   0.0069444
        k(    5) = (   0.0000000   0.0964069   0.0741272), wk =   0.0138889
        k(    6) = (   0.0000000   0.0964069  -0.1482545), wk =   0.0069444
        k(    7) = (   0.0000000   0.1928139   0.0000000), wk =   0.0069444
        k(    8) = (   0.0000000   0.1928139   0.0741272), wk =   0.0138889
        k(    9) = (   0.0000000   0.1928139  -0.1482545), wk =   0.0069444
        k(   10) = (   0.0000000   0.2892208   0.0000000), wk =   0.0069444
        k(   11) = (   0.0000000   0.2892208   0.0741272), wk =   0.0138889
        k(   12) = (   0.0000000   0.2892208  -0.1482545), wk =   0.0069444
        k(   13) = (   0.0000000   0.3856278   0.0000000), wk =   0.0069444
        k(   14) = (   0.0000000   0.3856278   0.0741272), wk =   0.0138889
        k(   15) = (   0.0000000   0.3856278  -0.1482545), wk =   0.0069444
        k(   16) = (   0.0000000   0.4820347   0.0000000), wk =   0.0069444
        k(   17) = (   0.0000000   0.4820347   0.0741272), wk =   0.0138889
        k(   18) = (   0.0000000   0.4820347  -0.1482545), wk =   0.0069444
        k(   19) = (   0.0000000  -0.5784417   0.0000000), wk =   0.0034722
        k(   20) = (   0.0000000  -0.5784417   0.0741272), wk =   0.0069444
        k(   21) = (   0.0000000  -0.5784417  -0.1482545), wk =   0.0034722
        k(   22) = (   0.0834909   0.1446104   0.0000000), wk =   0.0138889
        k(   23) = (   0.0834909   0.1446104   0.0741272), wk =   0.0277778
        k(   24) = (   0.0834909   0.1446104  -0.1482545), wk =   0.0138889
        k(   25) = (   0.0834909   0.2410174   0.0000000), wk =   0.0138889
        k(   26) = (   0.0834909   0.2410174   0.0741272), wk =   0.0277778
        k(   27) = (   0.0834909   0.2410174  -0.1482545), wk =   0.0138889
        k(   28) = (   0.0834909   0.3374243   0.0000000), wk =   0.0138889
        k(   29) = (   0.0834909   0.3374243   0.0741272), wk =   0.0277778
        k(   30) = (   0.0834909   0.3374243  -0.1482545), wk =   0.0138889
        k(   31) = (   0.0834909   0.4338313   0.0000000), wk =   0.0138889
        k(   32) = (   0.0834909   0.4338313   0.0741272), wk =   0.0277778
        k(   33) = (   0.0834909   0.4338313  -0.1482545), wk =   0.0138889
        k(   34) = (   0.0834909   0.5302382   0.0000000), wk =   0.0138889
        k(   35) = (   0.0834909   0.5302382   0.0741272), wk =   0.0277778
        k(   36) = (   0.0834909   0.5302382  -0.1482545), wk =   0.0138889
        k(   37) = (   0.1669817   0.2892208   0.0000000), wk =   0.0138889
        k(   38) = (   0.1669817   0.2892208   0.0741272), wk =   0.0277778
        k(   39) = (   0.1669817   0.2892208  -0.1482545), wk =   0.0138889
        k(   40) = (   0.1669817   0.3856278   0.0000000), wk =   0.0138889
        k(   41) = (   0.1669817   0.3856278   0.0741272), wk =   0.0277778
        k(   42) = (   0.1669817   0.3856278  -0.1482545), wk =   0.0138889
        k(   43) = (   0.1669817   0.4820347   0.0000000), wk =   0.0138889
        k(   44) = (   0.1669817   0.4820347   0.0741272), wk =   0.0277778
        k(   45) = (   0.1669817   0.4820347  -0.1482545), wk =   0.0138889
        k(   46) = (   0.1669817   0.5784417   0.0000000), wk =   0.0069444
        k(   47) = (   0.1669817   0.5784417   0.0741272), wk =   0.0138889
        k(   48) = (   0.1669817   0.5784417  -0.1482545), wk =   0.0069444
        k(   49) = (   0.2504726   0.4338313   0.0000000), wk =   0.0138889
        k(   50) = (   0.2504726   0.4338313   0.0741272), wk =   0.0277778
        k(   51) = (   0.2504726   0.4338313  -0.1482545), wk =   0.0138889
        k(   52) = (   0.2504726   0.5302382   0.0000000), wk =   0.0138889
        k(   53) = (   0.2504726   0.5302382   0.0741272), wk =   0.0277778
        k(   54) = (   0.2504726   0.5302382  -0.1482545), wk =   0.0138889
        k(   55) = (   0.3339635   0.5784417   0.0000000), wk =   0.0069444
        k(   56) = (   0.3339635   0.5784417   0.0741272), wk =   0.0138889
        k(   57) = (   0.3339635   0.5784417  -0.1482545), wk =   0.0069444
        k(   58) = (  -0.0834909  -0.0482035   0.0000000), wk =   0.0138889
        k(   59) = (  -0.0834909  -0.0482035  -0.0741272), wk =   0.0277778
        k(   60) = (  -0.0834909  -0.0482035   0.1482545), wk =   0.0138889
        k(   61) = (  -0.1669817  -0.0964069   0.0000000), wk =   0.0138889
        k(   62) = (  -0.1669817  -0.0964069  -0.0741272), wk =   0.0277778
        k(   63) = (  -0.1669817  -0.0964069   0.1482545), wk =   0.0138889
        k(   64) = (  -0.2504726  -0.1446104   0.0000000), wk =   0.0138889
        k(   65) = (  -0.2504726  -0.1446104  -0.0741272), wk =   0.0277778
        k(   66) = (  -0.2504726  -0.1446104   0.1482545), wk =   0.0138889
        k(   67) = (  -0.3339635  -0.1928139   0.0000000), wk =   0.0138889
        k(   68) = (  -0.3339635  -0.1928139  -0.0741272), wk =   0.0277778
        k(   69) = (  -0.3339635  -0.1928139   0.1482545), wk =   0.0138889
        k(   70) = (  -0.4174543  -0.2410174   0.0000000), wk =   0.0138889
        k(   71) = (  -0.4174543  -0.2410174  -0.0741272), wk =   0.0277778
        k(   72) = (  -0.4174543  -0.2410174   0.1482545), wk =   0.0138889
        k(   73) = (   0.5009452   0.2892208   0.0000000), wk =   0.0069444
        k(   74) = (   0.5009452   0.2892208  -0.0741272), wk =   0.0138889
        k(   75) = (   0.5009452   0.2892208   0.1482545), wk =   0.0069444
        k(   76) = (   0.1669817  -0.0000000   0.0000000), wk =   0.0069444
        k(   77) = (   0.1669817  -0.0000000  -0.0741272), wk =   0.0138889
        k(   78) = (   0.1669817  -0.0000000   0.1482545), wk =   0.0069444
        k(   79) = (  -0.1669817  -0.1928139   0.0000000), wk =   0.0138889
        k(   80) = (   0.2504726  -0.0482035   0.0000000), wk =   0.0138889
        k(   81) = (  -0.1669817  -0.1928139  -0.0741272), wk =   0.0277778
        k(   82) = (   0.2504726  -0.0482035  -0.0741272), wk =   0.0277778
        k(   83) = (  -0.1669817  -0.1928139   0.1482545), wk =   0.0138889
        k(   84) = (   0.2504726  -0.0482035   0.1482545), wk =   0.0138889
        k(   85) = (  -0.2504726  -0.2410174   0.0000000), wk =   0.0138889
        k(   86) = (   0.3339635  -0.0964069   0.0000000), wk =   0.0138889
        k(   87) = (  -0.2504726  -0.2410174  -0.0741272), wk =   0.0277778
        k(   88) = (   0.3339635  -0.0964069  -0.0741272), wk =   0.0277778
        k(   89) = (  -0.2504726  -0.2410174   0.1482545), wk =   0.0138889
        k(   90) = (   0.3339635  -0.0964069   0.1482545), wk =   0.0138889
        k(   91) = (  -0.3339635  -0.2892208   0.0000000), wk =   0.0138889
        k(   92) = (   0.4174543  -0.1446104   0.0000000), wk =   0.0138889
        k(   93) = (  -0.3339635  -0.2892208  -0.0741272), wk =   0.0277778
        k(   94) = (   0.4174543  -0.1446104  -0.0741272), wk =   0.0277778
        k(   95) = (  -0.3339635  -0.2892208   0.1482545), wk =   0.0138889
        k(   96) = (   0.4174543  -0.1446104   0.1482545), wk =   0.0138889
        k(   97) = (  -0.4174543  -0.3374243   0.0000000), wk =   0.0138889
        k(   98) = (   0.5009452  -0.1928139   0.0000000), wk =   0.0138889
        k(   99) = (  -0.4174543  -0.3374243  -0.0741272), wk =   0.0277778
        k(  100) = (   0.5009452  -0.1928139  -0.0741272), wk =   0.0277778
        k(  101) = (  -0.4174543  -0.3374243   0.1482545), wk =   0.0138889
        k(  102) = (   0.5009452  -0.1928139   0.1482545), wk =   0.0138889
        k(  103) = (   0.3339635  -0.0000000   0.0000000), wk =   0.0069444
        k(  104) = (   0.3339635  -0.0000000  -0.0741272), wk =   0.0138889
        k(  105) = (   0.3339635  -0.0000000   0.1482545), wk =   0.0069444
        k(  106) = (  -0.2504726  -0.3374243   0.0000000), wk =   0.0138889
        k(  107) = (   0.4174543  -0.0482035   0.0000000), wk =   0.0138889
        k(  108) = (  -0.2504726  -0.3374243  -0.0741272), wk =   0.0277778
        k(  109) = (   0.4174543  -0.0482035  -0.0741272), wk =   0.0277778
        k(  110) = (  -0.2504726  -0.3374243   0.1482545), wk =   0.0138889
        k(  111) = (   0.4174543  -0.0482035   0.1482545), wk =   0.0138889
        k(  112) = (  -0.3339635  -0.3856278   0.0000000), wk =   0.0138889
        k(  113) = (   0.5009452  -0.0964069   0.0000000), wk =   0.0138889
        k(  114) = (  -0.3339635  -0.3856278  -0.0741272), wk =   0.0277778
        k(  115) = (   0.5009452  -0.0964069  -0.0741272), wk =   0.0277778
        k(  116) = (  -0.3339635  -0.3856278   0.1482545), wk =   0.0138889
        k(  117) = (   0.5009452  -0.0964069   0.1482545), wk =   0.0138889
        k(  118) = (  -0.4174543  -0.4338313   0.0000000), wk =   0.0138889
        k(  119) = (  -0.4174543  -0.4338313  -0.0741272), wk =   0.0277778
        k(  120) = (  -0.4174543  -0.4338313   0.1482545), wk =   0.0138889
        k(  121) = (   0.5009452   0.0000000   0.0000000), wk =   0.0069444
        k(  122) = (   0.5009452   0.0000000  -0.0741272), wk =   0.0138889
        k(  123) = (   0.5009452   0.0000000   0.1482545), wk =   0.0069444
        k(  124) = (  -0.3339635  -0.4820347   0.0000000), wk =   0.0138889
        k(  125) = (   0.5844361  -0.0482035   0.0000000), wk =   0.0138889
        k(  126) = (  -0.3339635  -0.4820347  -0.0741272), wk =   0.0277778
        k(  127) = (   0.5844361  -0.0482035  -0.0741272), wk =   0.0277778
        k(  128) = (  -0.3339635  -0.4820347   0.1482545), wk =   0.0138889
        k(  129) = (   0.5844361  -0.0482035   0.1482545), wk =   0.0138889

                       cryst. coord.
        k(    1) = (   0.0000000   0.0000000   0.0000000), wk =   0.0034722
        k(    2) = (   0.0000000   0.0000000   0.2500000), wk =   0.0069444
        k(    3) = (   0.0000000   0.0000000  -0.5000000), wk =   0.0034722
        k(    4) = (   0.0000000   0.0833333   0.0000000), wk =   0.0069444
        k(    5) = (   0.0000000   0.0833333   0.2500000), wk =   0.0138889
        k(    6) = (   0.0000000   0.0833333  -0.5000000), wk =   0.0069444
        k(    7) = (   0.0000000   0.1666667   0.0000000), wk =   0.0069444
        k(    8) = (   0.0000000   0.1666667   0.2500000), wk =   0.0138889
        k(    9) = (   0.0000000   0.1666667  -0.5000000), wk =   0.0069444
        k(   10) = (   0.0000000   0.2500000   0.0000000), wk =   0.0069444
        k(   11) = (   0.0000000   0.2500000   0.2500000), wk =   0.0138889
        k(   12) = (   0.0000000   0.2500000  -0.5000000), wk =   0.0069444
        k(   13) = (   0.0000000   0.3333333   0.0000000), wk =   0.0069444
        k(   14) = (   0.0000000   0.3333333   0.2500000), wk =   0.0138889
        k(   15) = (   0.0000000   0.3333333  -0.5000000), wk =   0.0069444
        k(   16) = (   0.0000000   0.4166667   0.0000000), wk =   0.0069444
        k(   17) = (   0.0000000   0.4166667   0.2500000), wk =   0.0138889
        k(   18) = (   0.0000000   0.4166667  -0.5000000), wk =   0.0069444
        k(   19) = (   0.0000000  -0.5000000   0.0000000), wk =   0.0034722
        k(   20) = (   0.0000000  -0.5000000   0.2500000), wk =   0.0069444
        k(   21) = (   0.0000000  -0.5000000  -0.5000000), wk =   0.0034722
        k(   22) = (   0.0833333   0.0833333   0.0000000), wk =   0.0138889
        k(   23) = (   0.0833333   0.0833333   0.2500000), wk =   0.0277778
        k(   24) = (   0.0833333   0.0833333  -0.5000000), wk =   0.0138889
        k(   25) = (   0.0833333   0.1666667   0.0000000), wk =   0.0138889
        k(   26) = (   0.0833333   0.1666667   0.2500000), wk =   0.0277778
        k(   27) = (   0.0833333   0.1666667  -0.5000000), wk =   0.0138889
        k(   28) = (   0.0833333   0.2500000   0.0000000), wk =   0.0138889
        k(   29) = (   0.0833333   0.2500000   0.2500000), wk =   0.0277778
        k(   30) = (   0.0833333   0.2500000  -0.5000000), wk =   0.0138889
        k(   31) = (   0.0833333   0.3333333   0.0000000), wk =   0.0138889
        k(   32) = (   0.0833333   0.3333333   0.2500000), wk =   0.0277778
        k(   33) = (   0.0833333   0.3333333  -0.5000000), wk =   0.0138889
        k(   34) = (   0.0833333   0.4166667   0.0000000), wk =   0.0138889
        k(   35) = (   0.0833333   0.4166667   0.2500000), wk =   0.0277778
        k(   36) = (   0.0833333   0.4166667  -0.5000000), wk =   0.0138889
        k(   37) = (   0.1666667   0.1666667   0.0000000), wk =   0.0138889
        k(   38) = (   0.1666667   0.1666667   0.2500000), wk =   0.0277778
        k(   39) = (   0.1666667   0.1666667  -0.5000000), wk =   0.0138889
        k(   40) = (   0.1666667   0.2500000   0.0000000), wk =   0.0138889
        k(   41) = (   0.1666667   0.2500000   0.2500000), wk =   0.0277778
        k(   42) = (   0.1666667   0.2500000  -0.5000000), wk =   0.0138889
        k(   43) = (   0.1666667   0.3333333   0.0000000), wk =   0.0138889
        k(   44) = (   0.1666667   0.3333333   0.2500000), wk =   0.0277778
        k(   45) = (   0.1666667   0.3333333  -0.5000000), wk =   0.0138889
        k(   46) = (   0.1666667   0.4166667   0.0000000), wk =   0.0069444
        k(   47) = (   0.1666667   0.4166667   0.2500000), wk =   0.0138889
        k(   48) = (   0.1666667   0.4166667  -0.5000000), wk =   0.0069444
        k(   49) = (   0.2500000   0.2500000   0.0000000), wk =   0.0138889
        k(   50) = (   0.2500000   0.2500000   0.2500000), wk =   0.0277778
        k(   51) = (   0.2500000   0.2500000  -0.5000000), wk =   0.0138889
        k(   52) = (   0.2500000   0.3333333   0.0000000), wk =   0.0138889
        k(   53) = (   0.2500000   0.3333333   0.2500000), wk =   0.0277778
        k(   54) = (   0.2500000   0.3333333  -0.5000000), wk =   0.0138889
        k(   55) = (   0.3333333   0.3333333   0.0000000), wk =   0.0069444
        k(   56) = (   0.3333333   0.3333333   0.2500000), wk =   0.0138889
        k(   57) = (   0.3333333   0.3333333  -0.5000000), wk =   0.0069444
        k(   58) = (  -0.0833333  -0.0000000   0.0000000), wk =   0.0138889
        k(   59) = (  -0.0833333  -0.0000000  -0.2500000), wk =   0.0277778
        k(   60) = (  -0.0833333  -0.0000000   0.5000000), wk =   0.0138889
        k(   61) = (  -0.1666667  -0.0000000   0.0000000), wk =   0.0138889
        k(   62) = (  -0.1666667  -0.0000000  -0.2500000), wk =   0.0277778
        k(   63) = (  -0.1666667  -0.0000000   0.5000000), wk =   0.0138889
        k(   64) = (  -0.2500000  -0.0000000   0.0000000), wk =   0.0138889
        k(   65) = (  -0.2500000  -0.0000000  -0.2500000), wk =   0.0277778
        k(   66) = (  -0.2500000  -0.0000000   0.5000000), wk =   0.0138889
        k(   67) = (  -0.3333333  -0.0000000   0.0000000), wk =   0.0138889
        k(   68) = (  -0.3333333  -0.0000000  -0.2500000), wk =   0.0277778
        k(   69) = (  -0.3333333  -0.0000000   0.5000000), wk =   0.0138889
        k(   70) = (  -0.4166667   0.0000000   0.0000000), wk =   0.0138889
        k(   71) = (  -0.4166667   0.0000000  -0.2500000), wk =   0.0277778
        k(   72) = (  -0.4166667   0.0000000   0.5000000), wk =   0.0138889
        k(   73) = (   0.5000000   0.0000000   0.0000000), wk =   0.0069444
        k(   74) = (   0.5000000   0.0000000  -0.2500000), wk =   0.0138889
        k(   75) = (   0.5000000   0.0000000   0.5000000), wk =   0.0069444
        k(   76) = (   0.1666667  -0.0833333   0.0000000), wk =   0.0069444
        k(   77) = (   0.1666667  -0.0833333  -0.2500000), wk =   0.0138889
        k(   78) = (   0.1666667  -0.0833333   0.5000000), wk =   0.0069444
        k(   79) = (  -0.1666667  -0.0833333   0.0000000), wk =   0.0138889
        k(   80) = (   0.2500000  -0.1666667   0.0000000), wk =   0.0138889
        k(   81) = (  -0.1666667  -0.0833333  -0.2500000), wk =   0.0277778
        k(   82) = (   0.2500000  -0.1666667  -0.2500000), wk =   0.0277778
        k(   83) = (  -0.1666667  -0.0833333   0.5000000), wk =   0.0138889
        k(   84) = (   0.2500000  -0.1666667   0.5000000), wk =   0.0138889
        k(   85) = (  -0.2500000  -0.0833333   0.0000000), wk =   0.0138889
        k(   86) = (   0.3333333  -0.2500000   0.0000000), wk =   0.0138889
        k(   87) = (  -0.2500000  -0.0833333  -0.2500000), wk =   0.0277778
        k(   88) = (   0.3333333  -0.2500000  -0.2500000), wk =   0.0277778
        k(   89) = (  -0.2500000  -0.0833333   0.5000000), wk =   0.0138889
        k(   90) = (   0.3333333  -0.2500000   0.5000000), wk =   0.0138889
        k(   91) = (  -0.3333333  -0.0833333   0.0000000), wk =   0.0138889
        k(   92) = (   0.4166667  -0.3333333   0.0000000), wk =   0.0138889
        k(   93) = (  -0.3333333  -0.0833333  -0.2500000), wk =   0.0277778
        k(   94) = (   0.4166667  -0.3333333  -0.2500000), wk =   0.0277778
        k(   95) = (  -0.3333333  -0.0833333   0.5000000), wk =   0.0138889
        k(   96) = (   0.4166667  -0.3333333   0.5000000), wk =   0.0138889
        k(   97) = (  -0.4166667  -0.0833333   0.0000000), wk =   0.0138889
        k(   98) = (   0.5000000  -0.4166667   0.0000000), wk =   0.0138889
        k(   99) = (  -0.4166667  -0.0833333  -0.2500000), wk =   0.0277778
        k(  100) = (   0.5000000  -0.4166667  -0.2500000), wk =   0.0277778
        k(  101) = (  -0.4166667  -0.0833333   0.5000000), wk =   0.0138889
        k(  102) = (   0.5000000  -0.4166667   0.5000000), wk =   0.0138889
        k(  103) = (   0.3333333  -0.1666667   0.0000000), wk =   0.0069444
        k(  104) = (   0.3333333  -0.1666667  -0.2500000), wk =   0.0138889
        k(  105) = (   0.3333333  -0.1666667   0.5000000), wk =   0.0069444
        k(  106) = (  -0.2500000  -0.1666667   0.0000000), wk =   0.0138889
        k(  107) = (   0.4166667  -0.2500000   0.0000000), wk =   0.0138889
        k(  108) = (  -0.2500000  -0.1666667  -0.2500000), wk =   0.0277778
        k(  109) = (   0.4166667  -0.2500000  -0.2500000), wk =   0.0277778
        k(  110) = (  -0.2500000  -0.1666667   0.5000000), wk =   0.0138889
        k(  111) = (   0.4166667  -0.2500000   0.5000000), wk =   0.0138889
        k(  112) = (  -0.3333333  -0.1666667   0.0000000), wk =   0.0138889
        k(  113) = (   0.5000000  -0.3333333   0.0000000), wk =   0.0138889
        k(  114) = (  -0.3333333  -0.1666667  -0.2500000), wk =   0.0277778
        k(  115) = (   0.5000000  -0.3333333  -0.2500000), wk =   0.0277778
        k(  116) = (  -0.3333333  -0.1666667   0.5000000), wk =   0.0138889
        k(  117) = (   0.5000000  -0.3333333   0.5000000), wk =   0.0138889
        k(  118) = (  -0.4166667  -0.1666667   0.0000000), wk =   0.0138889
        k(  119) = (  -0.4166667  -0.1666667  -0.2500000), wk =   0.0277778
        k(  120) = (  -0.4166667  -0.1666667   0.5000000), wk =   0.0138889
        k(  121) = (   0.5000000  -0.2500000   0.0000000), wk =   0.0069444
        k(  122) = (   0.5000000  -0.2500000  -0.2500000), wk =   0.0138889
        k(  123) = (   0.5000000  -0.2500000   0.5000000), wk =   0.0069444
        k(  124) = (  -0.3333333  -0.2500000   0.0000000), wk =   0.0138889
        k(  125) = (   0.5833333  -0.3333333   0.0000000), wk =   0.0138889
        k(  126) = (  -0.3333333  -0.2500000  -0.2500000), wk =   0.0277778
        k(  127) = (   0.5833333  -0.3333333  -0.2500000), wk =   0.0277778
        k(  128) = (  -0.3333333  -0.2500000   0.5000000), wk =   0.0138889
        k(  129) = (   0.5833333  -0.3333333   0.5000000), wk =   0.0138889

     Dense  grid:    34133 G-vectors     FFT dimensions: (  30,  30,  96)

     Smooth grid:    11995 G-vectors     FFT dimensions: (  20,  20,  72)

     Dynamical RAM for                 wfc:       0.28 MB

     Dynamical RAM for     wfc (w. buffer):      35.90 MB

     Dynamical RAM for           str. fact:       0.52 MB

     Dynamical RAM for           local pot:       0.00 MB

     Dynamical RAM for          nlocal pot:       0.74 MB

     Dynamical RAM for                qrad:       0.44 MB

     Dynamical RAM for          rho,v,vnew:       3.54 MB

     Dynamical RAM for               rhoin:       1.18 MB

     Dynamical RAM for            rho*nmix:       8.33 MB

     Dynamical RAM for           G-vectors:       2.04 MB

     Dynamical RAM for          h,s,v(r/c):       0.03 MB

     Dynamical RAM for          <psi|beta>:       0.01 MB

     Dynamical RAM for                 psi:       0.55 MB

     Dynamical RAM for                hpsi:       0.55 MB

     Dynamical RAM for                spsi:       0.55 MB

     Dynamical RAM for      wfcinit/wfcrot:       0.74 MB

     Dynamical RAM for           addusdens:      24.48 MB

     Dynamical RAM for          addusforce:      27.87 MB

     Dynamical RAM for         addusstress:      26.04 MB

     Estimated static dynamical RAM per process >      57.02 MB

     Estimated max dynamical RAM per process >      84.89 MB

     Check: negative core charge=   -0.000011

     Initial potential from superposition of free atoms

     starting charge   15.99983, renormalised to   16.00000
     Starting wfcs are   16 randomized atomic wfcs

     total cpu time spent up to now is        4.7 secs

     Self-consistent Calculation

     iteration #  1     ecut=    45.00 Ry     beta= 0.70
     Davidson diagonalization with overlap
     ethr =  1.00E-02,  avg # of iterations =  2.7

     total cpu time spent up to now is       10.3 secs

     total energy              =     -49.66162157 Ry
     estimated scf accuracy    <       0.38323010 Ry

     iteration #  2     ecut=    45.00 Ry     beta= 0.70
     Davidson diagonalization with overlap
     ethr =  2.40E-03,  avg # of iterations =  2.5

     total cpu time spent up to now is       15.3 secs

     total energy              =     -49.71374719 Ry
     estimated scf accuracy    <       0.00437603 Ry

     iteration #  3     ecut=    45.00 Ry     beta= 0.70
     Davidson diagonalization with overlap
     ethr =  2.74E-05,  avg # of iterations =  7.1

     total cpu time spent up to now is       26.6 secs

     total energy              =     -49.71411147 Ry
     estimated scf accuracy    <       0.00031457 Ry

     iteration #  4     ecut=    45.00 Ry     beta= 0.70
     Davidson diagonalization with overlap
     c_bands:  1 eigenvalues not converged
     ethr =  1.97E-06,  avg # of iterations =  4.0

     total cpu time spent up to now is       33.3 secs

     total energy              =     -49.71412921 Ry
     estimated scf accuracy    <       0.00000197 Ry

     iteration #  5     ecut=    45.00 Ry     beta= 0.70
     Davidson diagonalization with overlap
     ethr =  1.23E-08,  avg # of iterations =  3.0

     total cpu time spent up to now is       39.0 secs

     total energy              =     -49.71413033 Ry
     estimated scf accuracy    <       0.00000006 Ry

     iteration #  6     ecut=    45.00 Ry     beta= 0.70
     Davidson diagonalization with overlap
     ethr =  3.68E-10,  avg # of iterations =  2.2

     total cpu time spent up to now is       48.6 secs

     total energy              =     -49.71413034 Ry
     estimated scf accuracy    <          5.7E-09 Ry

     iteration #  7     ecut=    45.00 Ry     beta= 0.70
     Davidson diagonalization with overlap
     ethr =  3.57E-11,  avg # of iterations =  1.9

     total cpu time spent up to now is       63.4 secs

     End of self-consistent calculation

          k = 0.0000 0.0000 0.0000 (  1485 PWs)   bands (ev):

   -14.7081 -14.6630  -3.0619  -2.5000   1.7695   1.7710   1.7711   1.7726
     7.9888  11.5082  13.1715  13.1728

     occupation numbers 
     1.0000   1.0000   1.0000   1.0000   1.0000   1.0000   1.0000   1.0000
    -0.0000  -0.0000  -0.0000  -0.0000

          k = 0.0000 0.0000 0.0741 (  1474 PWs)   bands (ev):

   -14.7015 -14.6697  -2.9859  -2.5894   1.7697   1.7708   1.7714   1.7724
     8.3511  10.6818  13.1709  13.1730

     occupation numbers 
     1.0000   1.0000   1.0000   1.0000   1.0000   1.0000   1.0000   1.0000
    -0.0000  -0.0000  -0.0000  -0.0000

          k = 0.0000 0.0000-0.1483 (  1450 PWs)   bands (ev):

   -14.6856 -14.6856  -2.7943  -2.7943   1.7702   1.7702   1.7719   1.7719
     9.3450   9.3450  13.1728  13.1746

     occupation numbers 
     1.0000   1.0000   1.0000   1.0000   1.0000   1.0000   1.0000   1.0000
    -0.0000  -0.0000  -0.0000  -0.0000

          k = 0.0000 0.0964 0.0000 (  1483 PWs)   bands (ev):

   -14.5440 -14.4995  -2.8636  -2.3065   1.1205   1.1235   1.4304   1.4328
     8.2021  11.7040  13.2229  13.2486

     occupation numbers 
     1.0000   1.0000   1.0000   1.0000   1.0000   1.0000   1.0000   1.0000
    -0.0000  -0.0000  -0.0000  -0.0000

          k = 0.0000 0.0964 0.0741 (  1488 PWs)   bands (ev):

   -14.5375 -14.5062  -2.7882  -2.3950   1.1209   1.1231   1.4307   1.4325
     8.5625  10.8809  13.2341  13.2470

     occupation numbers 
     1.0000   1.0000   1.0000   1.0000   1.0000   1.0000   1.0000   1.0000
    -0.0000  -0.0000  -0.0000  -0.0000

          k = 0.0000 0.0964-0.1483 (  1478 PWs)   bands (ev):

   -14.5219 -14.5219  -2.5981  -2.5981   1.1220   1.1220   1.4316   1.4316
     9.5512   9.5512  13.2424  13.2424

     occupation numbers 
     1.0000   1.0000   1.0000   1.0000   1.0000   1.0000   1.0000   1.0000
    -0.0000  -0.0000  -0.0000  -0.0000

          k = 0.0000 0.1928 0.0000 (  1495 PWs)   bands (ev):

   -14.0536 -14.0109  -2.2736  -1.7314  -0.5176  -0.5110   0.6366   0.6403
     8.8424  12.2747  13.1535  13.2095

     occupation numbers 
     1.0000   1.0000   1.0000   1.0000   1.0000   1.0000   1.0000   1.0000
    -0.0000  -0.0000  -0.0000  -0.0000

          k = 0.0000 0.1928 0.0741 (  1494 PWs)   bands (ev):

   -14.0474 -14.0172  -2.2000  -1.8174  -0.5166  -0.5119   0.6371   0.6397
     9.1965  11.4691  13.1801  13.2069

     occupation numbers 
     1.0000   1.0000   1.0000   1.0000   1.0000   1.0000   1.0000   1.0000
    -0.0000  -0.0000  -0.0000  -0.0000

          k = 0.0000 0.1928-0.1483 (  1490 PWs)   bands (ev):

   -14.0323 -14.0323  -2.0149  -2.0149  -0.5143  -0.5143   0.6384   0.6384
    10.1673  10.1673  13.1968  13.1968

     occupation numbers 
     1.0000   1.0000   1.0000   1.0000   1.0000   1.0000   1.0000   1.0000
    -0.0000  -0.0000  -0.0000  -0.0000

          k = 0.0000 0.2892 0.0000 (  1497 PWs)   bands (ev):

   -13.2426 -13.2027  -2.6169  -2.6055  -1.3099  -0.7955  -0.2447  -0.2403
     9.9069  11.9922  12.1114  12.8707

     occupation numbers 
     1.0000   1.0000   1.0000   1.0000   1.0000   1.0000   1.0000   1.0000
    -0.0000  -0.0000  -0.0000  -0.0000

          k = 0.0000 0.2892 0.0741 (  1497 PWs)   bands (ev):

   -13.2368 -13.2086  -2.6153  -2.6072  -1.2398  -0.8767  -0.2441  -0.2410
    10.2438  11.9478  12.0811  12.5891

     occupation numbers 
     1.0000   1.0000   1.0000   1.0000   1.0000   1.0000   1.0000   1.0000
    -0.0000  -0.0000  -0.0000  -0.0000

          k = 0.0000 0.2892-0.1483 (  1500 PWs)   bands (ev):

   -13.2228 -13.2228  -2.6112  -2.6112  -1.0638  -1.0638  -0.2425  -0.2425
    11.1448  11.1448  12.1434  12.1434

     occupation numbers 
     1.0000   1.0000   1.0000   1.0000   1.0000   1.0000   1.0000   1.0000
    -0.0000  -0.0000  -0.0000  -0.0000

          k = 0.0000 0.3856 0.0000 (  1504 PWs)   bands (ev):

   -12.1233 -12.0871  -4.8213  -4.8049  -0.9795  -0.9747  -0.0193   0.4470
     9.6521   9.8676  11.3797  12.5440

     occupation numbers 
     1.0000   1.0000   1.0000   1.0000   1.0000   1.0000   1.0000   1.0000
    -0.0000  -0.0000  -0.0000  -0.0000

          k = 0.0000 0.3856 0.0741 (  1501 PWs)   bands (ev):

   -12.1181 -12.0924  -4.8189  -4.8073  -0.9788  -0.9754   0.0447   0.3740
     9.6744   9.8280  11.7153  12.5429

     occupation numbers 
     1.0000   1.0000   1.0000   1.0000   1.0000   1.0000   1.0000   1.0000
    -0.0000  -0.0000  -0.0000  -0.0000

          k = 0.0000 0.3856-0.1483 (  1500 PWs)   bands (ev):

   -12.1053 -12.1053  -4.8131  -4.8131  -0.9771  -0.9771   0.2049   0.2049
     9.7435   9.7435  12.4392  12.4392

     occupation numbers 
     1.0000   1.0000   1.0000   1.0000   1.0000   1.0000   1.0000   1.0000
    -0.0000  -0.0000  -0.0000  -0.0000

          k = 0.0000 0.4820 0.0000 (  1508 PWs)   bands (ev):

   -10.7264 -10.6950  -6.9225  -6.9014  -1.4533  -1.4482   1.4493   1.8157
     7.4898   7.7618  12.2952  12.3517

     occupation numbers 
     1.0000   1.0000   1.0000   1.0000   1.0000   1.0000   1.0000   1.0000
    -0.0000  -0.0000  -0.0000  -0.0000

          k = 0.0000 0.4820 0.0741 (  1503 PWs)   bands (ev):

   -10.7218 -10.6996  -6.9194  -6.9045  -1.4526  -1.4490   1.5008   1.7597
     7.5229   7.7153  12.3052  12.3455

     occupation numbers 
     1.0000   1.0000   1.0000   1.0000   1.0000   1.0000   1.0000   1.0000
    -0.0000  -0.0000  -0.0000  -0.0000

          k = 0.0000 0.4820-0.1483 (  1500 PWs)   bands (ev):

   -10.7107 -10.7107  -6.9120  -6.9120  -1.4508  -1.4508   1.6280   1.6280
     7.6125   7.6125  12.3268  12.3268

     occupation numbers 
     1.0000   1.0000   1.0000   1.0000   1.0000   1.0000   1.0000   1.0000
    -0.0000  -0.0000  -0.0000  -0.0000

          k = 0.0000-0.5784 0.0000 (  1508 PWs)   bands (ev):

    -9.4545  -9.4396  -8.4242  -8.4123  -1.6160  -1.6108   2.3837   2.5557
     6.4163   6.6543  12.2142  12.2801

     occupation numbers 
     1.0000   1.0000   1.0000   1.0000   1.0000   1.0000   1.0000   1.0000
    -0.0027  -0.0006  -0.0000  -0.0000

          k = 0.0000-0.5784 0.0741 (  1512 PWs)   bands (ev):

    -9.4523  -9.4418  -8.4225  -8.4141  -1.6152  -1.6116   2.4103   2.5322
     6.4411   6.6093  12.2238  12.2703

     occupation numbers 
     1.0000   1.0000   1.0000   1.0000   1.0000   1.0000   1.0000   1.0000
    -0.0024  -0.0008  -0.0000  -0.0000

          k = 0.0000-0.5784-0.1483 (  1512 PWs)   bands (ev):

    -9.4470  -9.4470  -8.4184  -8.4184  -1.6134  -1.6134   2.4728   2.4728
     6.5152   6.5152  12.2470  12.2470

     occupation numbers 
     1.0000   1.0000   1.0000   1.0000   1.0000   1.0000   1.0000   1.0000
    -0.0015  -0.0015  -0.0000  -0.0000

          k = 0.0835 0.1446 0.0000 (  1493 PWs)   bands (ev):

   -14.2168 -14.1735  -2.4693  -1.9220   0.0872   0.0903   0.7532   0.7553
     8.6293  12.0906  13.5022  13.5545

     occupation numbers 
     1.0000   1.0000   1.0000   1.0000   1.0000   1.0000   1.0000   1.0000
    -0.0000  -0.0000  -0.0000  -0.0000

          k = 0.0835 0.1446 0.0741 (  1494 PWs)   bands (ev):

   -14.2105 -14.1799  -2.3951  -2.0089   0.0877   0.0899   0.7536   0.7550
     8.9858  11.2771  13.5271  13.5515

     occupation numbers 
     1.0000   1.0000   1.0000   1.0000   1.0000   1.0000   1.0000   1.0000
    -0.0000  -0.0000  -0.0000  -0.0000

          k = 0.0835 0.1446-0.1483 (  1496 PWs)   bands (ev):

   -14.1953 -14.1953  -2.2083  -2.2083   0.0888   0.0888   0.7543   0.7543
     9.9635   9.9635  13.5434  13.5434

     occupation numbers 
     1.0000   1.0000   1.0000   1.0000   1.0000   1.0000   1.0000   1.0000
    -0.0000  -0.0000  -0.0000  -0.0000

          k = 0.0835 0.2410 0.0000 (  1494 PWs)   bands (ev):

   -13.5661 -13.5250  -1.6914  -1.6232  -1.6158  -1.1652  -0.2467  -0.2424
     9.4836  12.7440  12.8947  13.0750

     occupation numbers 
     1.0000   1.0000   1.0000   1.0000   1.0000   1.0000   1.0000   1.0000
    -0.0000  -0.0000  -0.0000  -0.0000

          k = 0.0835 0.2410 0.0741 (  1497 PWs)   bands (ev):

   -13.5602 -13.5311  -1.6221  -1.6203  -1.6164  -1.2484  -0.2460  -0.2430
     9.8305  12.0409  12.9007  12.9818

     occupation numbers 
     1.0000   1.0000   1.0000   1.0000   1.0000   1.0000   1.0000   1.0000
    -0.0000  -0.0000  -0.0000  -0.0000

          k = 0.0835 0.2410-0.1483 (  1506 PWs)   bands (ev):

   -13.5457 -13.5457  -1.6195  -1.6195  -1.4399  -1.4399  -0.2445  -0.2445
    10.7802  10.7802  12.9352  12.9352

     occupation numbers 
     1.0000   1.0000   1.0000   1.0000   1.0000   1.0000   1.0000   1.0000
    -0.0000  -0.0000  -0.0000  -0.0000

          k = 0.0835 0.3374 0.0000 (  1507 PWs)   bands (ev):

   -12.6008 -12.5630  -3.6976  -3.6846  -1.1346  -1.1287  -0.5584  -0.0687
    10.6995  10.7582  10.8508  13.3981

     occupation numbers 
     1.0000   1.0000   1.0000   1.0000   1.0000   1.0000   1.0000   1.0000
    -0.0000  -0.0000  -0.0000  -0.0000

          k = 0.0835 0.3374 0.0741 (  1502 PWs)   bands (ev):

   -12.5953 -12.5686  -3.6957  -3.6865  -1.1338  -1.1296  -0.4915  -0.1457
    10.6944  10.8159  11.1280  13.1781

     occupation numbers 
     1.0000   1.0000   1.0000   1.0000   1.0000   1.0000   1.0000   1.0000
    -0.0000  -0.0000  -0.0000  -0.0000

          k = 0.0835 0.3374-0.1483 (  1496 PWs)   bands (ev):

   -12.5820 -12.5820  -3.6911  -3.6911  -1.1317  -1.1317  -0.3236  -0.3236
    10.7525  10.7525  12.0355  12.0355

     occupation numbers 
     1.0000   1.0000   1.0000   1.0000   1.0000   1.0000   1.0000   1.0000
    -0.0000  -0.0000  -0.0000  -0.0000

          k = 0.0835 0.4338 0.0000 (  1516 PWs)   bands (ev):

   -11.3397 -11.3061  -5.8217  -5.8034  -1.7706  -1.7639   0.8517   1.2755
     8.4533   8.6844  12.4245  13.1204

     occupation numbers 
     1.0000   1.0000   1.0000   1.0000   1.0000   1.0000   1.0000   1.0000
    -0.0000  -0.0000  -0.0000  -0.0000

          k = 0.0835 0.4338 0.0741 (  1509 PWs)   bands (ev):

   -11.3348 -11.3110  -5.8190  -5.8060  -1.7696  -1.7649   0.9103   1.2097
     8.4823   8.6460  12.7195  13.1256

     occupation numbers 
     1.0000   1.0000   1.0000   1.0000   1.0000   1.0000   1.0000   1.0000
    -0.0000  -0.0000  -0.0000  -0.0000

          k = 0.0835 0.4338-0.1483 (  1506 PWs)   bands (ev):

   -11.3229 -11.3229  -5.8125  -5.8125  -1.7672  -1.7672   1.0564   1.0564
     8.5595   8.5595  13.1067  13.1068

     occupation numbers 
     1.0000   1.0000   1.0000   1.0000   1.0000   1.0000   1.0000   1.0000
    -0.0000  -0.0000  -0.0000  -0.0000

          k = 0.0835 0.5302 0.0000 (  1514 PWs)   bands (ev):

    -9.8579  -9.8309  -7.7636  -7.7423  -2.0996  -2.0926   2.2338   2.4988
     6.6871   6.9261  12.9455  13.0203

     occupation numbers 
     1.0000   1.0000   1.0000   1.0000   1.0000   1.0000   1.0000   1.0000
    -0.0005  -0.0001  -0.0000  -0.0000

          k = 0.0835 0.5302 0.0741 (  1511 PWs)   bands (ev):

    -9.8539  -9.8348  -7.7605  -7.7454  -2.0986  -2.0936   2.2725   2.4599
     6.7146   6.8837  12.9565  13.0094

     occupation numbers 
     1.0000   1.0000   1.0000   1.0000   1.0000   1.0000   1.0000   1.0000
    -0.0004  -0.0001  -0.0000  -0.0000

          k = 0.0835 0.5302-0.1483 (  1516 PWs)   bands (ev):

    -9.8444  -9.8444  -7.7530  -7.7530  -2.0961  -2.0961   2.3661   2.3661
     6.7917   6.7917  12.9830  12.9830

     occupation numbers 
     1.0000   1.0000   1.0000   1.0000   1.0000   1.0000   1.0000   1.0000
    -0.0002  -0.0002  -0.0000  -0.0000

          k = 0.1670 0.2892 0.0000 (  1507 PWs)   bands (ev):

   -12.7611 -12.7227  -2.9520  -2.9461  -1.6081  -1.6037  -0.7406  -0.2435
    10.5497  11.1677  11.2679  13.7122

     occupation numbers 
     1.0000   1.0000   1.0000   1.0000   1.0000   1.0000   1.0000   1.0000
    -0.0000  -0.0000  -0.0000  -0.0000

          k = 0.1670 0.2892 0.0741 (  1508 PWs)   bands (ev):

   -12.7555 -12.7284  -2.9512  -2.9469  -1.6075  -1.6044  -0.6727  -0.3218
    10.8824  11.1823  11.2533  12.9924

     occupation numbers 
     1.0000   1.0000   1.0000   1.0000   1.0000   1.0000   1.0000   1.0000
    -0.0000  -0.0000  -0.0000  -0.0000

          k = 0.1670 0.2892-0.1483 (  1506 PWs)   bands (ev):

   -12.7420 -12.7420  -2.9490  -2.9490  -1.6059  -1.6059  -0.5024  -0.5024
    11.2174  11.2174  11.7921  11.7921

     occupation numbers 
     1.0000   1.0000   1.0000   1.0000   1.0000   1.0000   1.0000   1.0000
    -0.0000  -0.0000  -0.0000  -0.0000

          k = 0.1670 0.3856 0.0000 (  1509 PWs)   bands (ev):

   -11.6526 -11.6180  -4.6812  -4.6686  -2.6664  -2.6583   0.5349   0.9839
     9.2007   9.3438  12.0273  15.0188

     occupation numbers 
     1.0000   1.0000   1.0000   1.0000   1.0000   1.0000   1.0000   1.0000
    -0.0000  -0.0000  -0.0000  -0.0000

          k = 0.1670 0.3856 0.0741 (  1510 PWs)   bands (ev):

   -11.6476 -11.6231  -4.6794  -4.6705  -2.6652  -2.6595   0.5967   0.9138
     9.2205   9.3219  12.3340  14.2002

     occupation numbers 
     1.0000   1.0000   1.0000   1.0000   1.0000   1.0000   1.0000   1.0000
    -0.0000  -0.0000  -0.0000  -0.0000

          k = 0.1670 0.3856-0.1483 (  1520 PWs)   bands (ev):

   -11.6354 -11.6354  -4.6750  -4.6750  -2.6624  -2.6624   0.7511   0.7511
     9.2702   9.2702  13.1587  13.1587

     occupation numbers 
     1.0000   1.0000   1.0000   1.0000   1.0000   1.0000   1.0000   1.0000
    -0.0000  -0.0000  -0.0000  -0.0000

          k = 0.1670 0.4820 0.0000 (  1516 PWs)   bands (ev):

   -10.2757 -10.2458  -6.5938  -6.5750  -3.2435  -3.2332   2.0040   2.3615
     7.2667   7.4603  13.8827  14.8136

     occupation numbers 
     1.0000   1.0000   1.0000   1.0000   1.0000   1.0000   1.0000   1.0000
    -0.0000  -0.0000  -0.0000  -0.0000

          k = 0.1670 0.4820 0.0741 (  1519 PWs)   bands (ev):

   -10.2713 -10.2502  -6.5910  -6.5778  -3.2420  -3.2347   2.0542   2.3068
     7.2922   7.4293  14.1281  14.8193

     occupation numbers 
     1.0000   1.0000   1.0000   1.0000   1.0000   1.0000   1.0000   1.0000
    -0.0000  -0.0000  -0.0000  -0.0000

          k = 0.1670 0.4820-0.1483 (  1520 PWs)   bands (ev):

   -10.2608 -10.2608  -6.5844  -6.5844  -3.2384  -3.2384   2.1783   2.1783
     7.3581   7.3581  14.6896  14.6896

     occupation numbers 
     1.0000   1.0000   1.0000   1.0000   1.0000   1.0000   1.0000   1.0000
    -0.0000  -0.0000  -0.0000  -0.0000

          k = 0.1670 0.5784 0.0000 (  1513 PWs)   bands (ev):

    -9.0337  -9.0196  -8.0243  -8.0138  -3.4287  -3.4178   2.9836   3.1520
     6.2375   6.3687  14.7157  14.8556

     occupation numbers 
     1.0000   1.0000   1.0000   1.0000   1.0000   1.0000   1.0004   1.0012
    -0.0071  -0.0036  -0.0000  -0.0000

          k = 0.1670 0.5784 0.0741 (  1520 PWs)   bands (ev):

    -9.0316  -9.0216  -8.0228  -8.0154  -3.4271  -3.4194   3.0099   3.1292
     6.2499   6.3430  14.7338  14.8319

     occupation numbers 
     1.0000   1.0000   1.0000   1.0000   1.0000   1.0000   1.0004   1.0010
    -0.0067  -0.0041  -0.0000  -0.0000

          k = 0.1670 0.5784-0.1483 (  1528 PWs)   bands (ev):

    -9.0266  -9.0266  -8.0192  -8.0192  -3.4233  -3.4233   3.0713   3.0713
     6.2898   6.2898  14.7797  14.7797

     occupation numbers 
     1.0000   1.0000   1.0000   1.0000   1.0000   1.0000   1.0007   1.0007
    -0.0055  -0.0055  -0.0000  -0.0000

          k = 0.2505 0.4338 0.0000 (  1513 PWs)   bands (ev):

   -10.4237 -10.3931  -5.7136  -5.7045  -4.1484  -4.1414   1.9072   2.2933
     7.5888   7.7247  13.6816  15.4295

     occupation numbers 
     1.0000   1.0000   1.0000   1.0000   1.0000   1.0000   1.0000   1.0000
    -0.0000  -0.0000  -0.0000  -0.0000

          k = 0.2505 0.4338 0.0741 (  1528 PWs)   bands (ev):

   -10.4193 -10.3976  -5.7123  -5.7058  -4.1474  -4.1425   1.9609   2.2337
     7.6086   7.7046  13.9118  15.1275

     occupation numbers 
     1.0000   1.0000   1.0000   1.0000   1.0000   1.0000   1.0000   1.0000
    -0.0000  -0.0000  -0.0000  -0.0000

          k = 0.2505 0.4338-0.1483 (  1530 PWs)   bands (ev):

   -10.4085 -10.4085  -5.7090  -5.7090  -4.1450  -4.1450   2.0943   2.0943
     7.6565   7.6565  14.4911  14.4911

     occupation numbers 
     1.0000   1.0000   1.0000   1.0000   1.0000   1.0000   1.0000   1.0000
    -0.0000  -0.0000  -0.0000  -0.0000

          k = 0.2505 0.5302 0.0000 (  1523 PWs)   bands (ev):

    -8.9994  -8.9752  -7.1371  -7.1214  -4.8581  -4.8464   3.3496   3.6128
     6.0751   6.2049  15.6270  15.6836

     occupation numbers 
     1.0000   1.0000   1.0000   1.0000   1.0000   1.0000   1.0038   1.0135
    -0.0146  -0.0084  -0.0000  -0.0000

          k = 0.2505 0.5302 0.0741 (  1528 PWs)   bands (ev):

    -8.9959  -8.9788  -7.1349  -7.1238  -4.8564  -4.8481   3.3878   3.5740
     6.0921   6.1840  15.4554  15.5468

     occupation numbers 
     1.0000   1.0000   1.0000   1.0000   1.0000   1.0000   1.0047   1.0115
    -0.0137  -0.0092  -0.0000  -0.0000

          k = 0.2505 0.5302-0.1483 (  1536 PWs)   bands (ev):

    -8.9874  -8.9874  -7.1293  -7.1293  -4.8522  -4.8522   3.4806   3.4806
     6.1361   6.1361  15.3910  15.3910

     occupation numbers 
     1.0000   1.0000   1.0000   1.0000   1.0000   1.0000   1.0075   1.0075
    -0.0114  -0.0114  -0.0000  -0.0000

          k = 0.3340 0.5784 0.0000 (  1527 PWs)   bands (ev):

    -7.7830  -7.7707  -7.7707  -7.7590  -5.7483  -5.7483   4.6829   4.8365
     4.8365   4.9983  15.5433  15.5434

     occupation numbers 
     1.0000   1.0000   1.0000   1.0000   1.0000   1.0000   0.7051   0.5212
     0.5212   0.3244  -0.0000  -0.0000

          k = 0.3340 0.5784 0.0741 (  1524 PWs)   bands (ev):

    -7.7795  -7.7707  -7.7707  -7.7625  -5.7483  -5.7483   4.7271   4.8374
     4.8375   4.9500  15.3768  15.3769

     occupation numbers 
     1.0000   1.0000   1.0000   1.0000   1.0000   1.0000   0.6543   0.5200
     0.5200   0.3813  -0.0000  -0.0000

          k = 0.3340 0.5784-0.1483 (  1542 PWs)   bands (ev):

    -7.7712  -7.7712  -7.7705  -7.7705  -5.7484  -5.7484   4.8364   4.8364
     4.8384   4.8384  15.2464  15.2464

     occupation numbers 
     1.0000   1.0000   1.0000   1.0000   1.0000   1.0000   0.5213   0.5213
     0.5189   0.5189  -0.0000  -0.0000

          k =-0.0835-0.0482 0.0000 (  1483 PWs)   bands (ev):

   -14.5440 -14.4995  -2.8636  -2.3064   1.1194   1.1225   1.4315   1.4339
     8.2021  11.7040  13.2243  13.2500

     occupation numbers 
     1.0000   1.0000   1.0000   1.0000   1.0000   1.0000   1.0000   1.0000
    -0.0000  -0.0000  -0.0000  -0.0000

          k =-0.0835-0.0482-0.0741 (  1488 PWs)   bands (ev):

   -14.5375 -14.5062  -2.7882  -2.3950   1.1198   1.1220   1.4319   1.4336
     8.5625  10.8809  13.2354  13.2484

     occupation numbers 
     1.0000   1.0000   1.0000   1.0000   1.0000   1.0000   1.0000   1.0000
    -0.0000  -0.0000  -0.0000  -0.0000

          k =-0.0835-0.0482 0.1483 (  1478 PWs)   bands (ev):

   -14.5219 -14.5219  -2.5981  -2.5981   1.1209   1.1209   1.4327   1.4327
     9.5512   9.5512  13.2437  13.2437

     occupation numbers 
     1.0000   1.0000   1.0000   1.0000   1.0000   1.0000   1.0000   1.0000
    -0.0000  -0.0000  -0.0000  -0.0000

          k =-0.1670-0.0964 0.0000 (  1495 PWs)   bands (ev):

   -14.0536 -14.0109  -2.2736  -1.7314  -0.5184  -0.5118   0.6375   0.6412
     8.8424  12.2747  13.1543  13.2103

     occupation numbers 
     1.0000   1.0000   1.0000   1.0000   1.0000   1.0000   1.0000   1.0000
    -0.0000  -0.0000  -0.0000  -0.0000

          k =-0.1670-0.0964-0.0741 (  1494 PWs)   bands (ev):

   -14.0474 -14.0172  -2.2000  -1.8174  -0.5174  -0.5128   0.6381   0.6406
     9.1965  11.4691  13.1808  13.2073

     occupation numbers 
     1.0000   1.0000   1.0000   1.0000   1.0000   1.0000   1.0000   1.0000
    -0.0000  -0.0000  -0.0000  -0.0000

          k =-0.1670-0.0964 0.1483 (  1490 PWs)   bands (ev):

   -14.0324 -14.0324  -2.0149  -2.0149  -0.5151  -0.5151   0.6393   0.6393
    10.1673  10.1673  13.1977  13.1977

     occupation numbers 
     1.0000   1.0000   1.0000   1.0000   1.0000   1.0000   1.0000   1.0000
    -0.0000  -0.0000  -0.0000  -0.0000

          k =-0.2505-0.1446 0.0000 (  1497 PWs)   bands (ev):

   -13.2427 -13.2027  -2.6175  -2.6061  -1.3098  -0.7954  -0.2440  -0.2396
     9.9069  11.9919  12.1111  12.8714

     occupation numbers 
     1.0000   1.0000   1.0000   1.0000   1.0000   1.0000   1.0000   1.0000
    -0.0000  -0.0000  -0.0000  -0.0000

          k =-0.2505-0.1446-0.0741 (  1497 PWs)   bands (ev):

   -13.2369 -13.2086  -2.6159  -2.6078  -1.2398  -0.8766  -0.2433  -0.2402
    10.2438  11.9477  12.0808  12.5890

     occupation numbers 
     1.0000   1.0000   1.0000   1.0000   1.0000   1.0000   1.0000   1.0000
    -0.0000  -0.0000  -0.0000  -0.0000

          k =-0.2505-0.1446 0.1483 (  1500 PWs)   bands (ev):

   -13.2228 -13.2228  -2.6118  -2.6118  -1.0637  -1.0637  -0.2418  -0.2418
    11.1448  11.1448  12.1431  12.1431

     occupation numbers 
     1.0000   1.0000   1.0000   1.0000   1.0000   1.0000   1.0000   1.0000
    -0.0000  -0.0000  -0.0000  -0.0000

          k =-0.3340-0.1928 0.0000 (  1504 PWs)   bands (ev):

   -12.1233 -12.0871  -4.8218  -4.8054  -0.9788  -0.9740  -0.0191   0.4471
     9.6516   9.8672  11.3797  12.5443

     occupation numbers 
     1.0000   1.0000   1.0000   1.0000   1.0000   1.0000   1.0000   1.0000
    -0.0000  -0.0000  -0.0000  -0.0000

          k =-0.3340-0.1928-0.0741 (  1501 PWs)   bands (ev):

   -12.1181 -12.0924  -4.8193  -4.8078  -0.9781  -0.9747   0.0449   0.3741
     9.6740   9.8276  11.7153  12.5433

     occupation numbers 
     1.0000   1.0000   1.0000   1.0000   1.0000   1.0000   1.0000   1.0000
    -0.0000  -0.0000  -0.0000  -0.0000

          k =-0.3340-0.1928 0.1483 (  1500 PWs)   bands (ev):

   -12.1053 -12.1053  -4.8136  -4.8136  -0.9764  -0.9764   0.2050   0.2050
     9.7431   9.7431  12.4393  12.4394

     occupation numbers 
     1.0000   1.0000   1.0000   1.0000   1.0000   1.0000   1.0000   1.0000
    -0.0000  -0.0000  -0.0000  -0.0000

          k =-0.4175-0.2410 0.0000 (  1508 PWs)   bands (ev):

   -10.7263 -10.6950  -6.9229  -6.9018  -1.4527  -1.4476   1.4496   1.8161
     7.4890   7.7611  12.2955  12.3519

     occupation numbers 
     1.0000   1.0000   1.0000   1.0000   1.0000   1.0000   1.0000   1.0000
    -0.0000  -0.0000  -0.0000  -0.0000

          k =-0.4175-0.2410-0.0741 (  1503 PWs)   bands (ev):

   -10.7218 -10.6996  -6.9198  -6.9049  -1.4520  -1.4484   1.5011   1.7601
     7.5222   7.7147  12.3055  12.3458

     occupation numbers 
     1.0000   1.0000   1.0000   1.0000   1.0000   1.0000   1.0000   1.0000
    -0.0000  -0.0000  -0.0000  -0.0000

          k =-0.4175-0.2410 0.1483 (  1500 PWs)   bands (ev):

   -10.7107 -10.7107  -6.9124  -6.9124  -1.4502  -1.4502   1.6283   1.6283
     7.6119   7.6119  12.3271  12.3271

     occupation numbers 
     1.0000   1.0000   1.0000   1.0000   1.0000   1.0000   1.0000   1.0000
    -0.0000  -0.0000  -0.0000  -0.0000

          k = 0.5009 0.2892 0.0000 (  1508 PWs)   bands (ev):

    -9.4541  -9.4393  -8.4248  -8.4130  -1.6154  -1.6103   2.3842   2.5564
     6.4153   6.6534  12.2144  12.2803

     occupation numbers 
     1.0000   1.0000   1.0000   1.0000   1.0000   1.0000   1.0000   1.0000
    -0.0027  -0.0006  -0.0000  -0.0000

          k = 0.5009 0.2892-0.0741 (  1512 PWs)   bands (ev):

    -9.4520  -9.4414  -8.4232  -8.4148  -1.6146  -1.6110   2.4109   2.5328
     6.4402   6.6084  12.2240  12.2706

     occupation numbers 
     1.0000   1.0000   1.0000   1.0000   1.0000   1.0000   1.0000   1.0000
    -0.0024  -0.0008  -0.0000  -0.0000

          k = 0.5009 0.2892 0.1483 (  1512 PWs)   bands (ev):

    -9.4466  -9.4466  -8.4191  -8.4191  -1.6128  -1.6128   2.4734   2.4734
     6.5143   6.5143  12.2472  12.2472

     occupation numbers 
     1.0000   1.0000   1.0000   1.0000   1.0000   1.0000   1.0000   1.0000
    -0.0015  -0.0015  -0.0000  -0.0000

          k = 0.1670-0.0000 0.0000 (  1493 PWs)   bands (ev):

   -14.2168 -14.1735  -2.4693  -1.9220   0.0862   0.0893   0.7543   0.7564
     8.6294  12.0907  13.5040  13.5562

     occupation numbers 
     1.0000   1.0000   1.0000   1.0000   1.0000   1.0000   1.0000   1.0000
    -0.0000  -0.0000  -0.0000  -0.0000

          k = 0.1670-0.0000-0.0741 (  1494 PWs)   bands (ev):

   -14.2105 -14.1799  -2.3951  -2.0089   0.0867   0.0888   0.7546   0.7561
     8.9858  11.2771  13.5287  13.5532

     occupation numbers 
     1.0000   1.0000   1.0000   1.0000   1.0000   1.0000   1.0000   1.0000
    -0.0000  -0.0000  -0.0000  -0.0000

          k = 0.1670-0.0000 0.1483 (  1496 PWs)   bands (ev):

   -14.1953 -14.1953  -2.2083  -2.2083   0.0878   0.0878   0.7554   0.7554
     9.9635   9.9635  13.5450  13.5451

     occupation numbers 
     1.0000   1.0000   1.0000   1.0000   1.0000   1.0000   1.0000   1.0000
    -0.0000  -0.0000  -0.0000  -0.0000

          k =-0.1670-0.1928 0.0000 (  1494 PWs)   bands (ev):

   -13.5661 -13.5250  -1.6914  -1.6236  -1.6162  -1.1652  -0.2462  -0.2418
     9.4836  12.7441  12.8946  13.0745

     occupation numbers 
     1.0000   1.0000   1.0000   1.0000   1.0000   1.0000   1.0000   1.0000
    -0.0000  -0.0000  -0.0000  -0.0000

          k = 0.2505-0.0482 0.0000 (  1494 PWs)   bands (ev):

   -13.5661 -13.5251  -1.6913  -1.6241  -1.6167  -1.1651  -0.2457  -0.2414
     9.4836  12.7440  12.8944  13.0744

     occupation numbers 
     1.0000   1.0000   1.0000   1.0000   1.0000   1.0000   1.0000   1.0000
    -0.0000  -0.0000  -0.0000  -0.0000

          k =-0.1670-0.1928-0.0741 (  1497 PWs)   bands (ev):

   -13.5602 -13.5311  -1.6226  -1.6204  -1.6168  -1.2484  -0.2455  -0.2425
     9.8305  12.0410  12.9006  12.9816

     occupation numbers 
     1.0000   1.0000   1.0000   1.0000   1.0000   1.0000   1.0000   1.0000
    -0.0000  -0.0000  -0.0000  -0.0000

          k = 0.2505-0.0482-0.0741 (  1497 PWs)   bands (ev):

   -13.5602 -13.5311  -1.6230  -1.6205  -1.6171  -1.2484  -0.2450  -0.2420
     9.8306  12.0410  12.9004  12.9814

     occupation numbers 
     1.0000   1.0000   1.0000   1.0000   1.0000   1.0000   1.0000   1.0000
    -0.0000  -0.0000  -0.0000  -0.0000

          k =-0.1670-0.1928 0.1483 (  1506 PWs)   bands (ev):

   -13.5457 -13.5457  -1.6200  -1.6200  -1.4399  -1.4399  -0.2440  -0.2440
    10.7802  10.7803  12.9351  12.9352

     occupation numbers 
     1.0000   1.0000   1.0000   1.0000   1.0000   1.0000   1.0000   1.0000
    -0.0000  -0.0000  -0.0000  -0.0000

          k = 0.2505-0.0482 0.1483 (  1506 PWs)   bands (ev):

   -13.5457 -13.5457  -1.6204  -1.6204  -1.4399  -1.4399  -0.2435  -0.2435
    10.7803  10.7803  12.9349  12.9350

     occupation numbers 
     1.0000   1.0000   1.0000   1.0000   1.0000   1.0000   1.0000   1.0000
    -0.0000  -0.0000  -0.0000  -0.0000

          k =-0.2505-0.2410 0.0000 (  1507 PWs)   bands (ev):

   -12.6008 -12.5630  -3.6981  -3.6850  -1.1340  -1.1281  -0.5583  -0.0687
    10.6992  10.7581  10.8506  13.3984

     occupation numbers 
     1.0000   1.0000   1.0000   1.0000   1.0000   1.0000   1.0000   1.0000
    -0.0000  -0.0000  -0.0000  -0.0000

          k = 0.3340-0.0964 0.0000 (  1507 PWs)   bands (ev):

   -12.6009 -12.5630  -3.6982  -3.6852  -1.1339  -1.1279  -0.5583  -0.0686
    10.6990  10.7582  10.8504  13.3989

     occupation numbers 
     1.0000   1.0000   1.0000   1.0000   1.0000   1.0000   1.0000   1.0000
    -0.0000  -0.0000  -0.0000  -0.0000

          k =-0.2505-0.2410-0.0741 (  1502 PWs)   bands (ev):

   -12.5954 -12.5686  -3.6962  -3.6870  -1.1332  -1.1290  -0.4914  -0.1457
    10.6942  10.8157  11.1280  13.1782

     occupation numbers 
     1.0000   1.0000   1.0000   1.0000   1.0000   1.0000   1.0000   1.0000
    -0.0000  -0.0000  -0.0000  -0.0000

          k = 0.3340-0.0964-0.0741 (  1502 PWs)   bands (ev):

   -12.5954 -12.5686  -3.6963  -3.6871  -1.1330  -1.1288  -0.4914  -0.1456
    10.6940  10.8155  11.1280  13.1783

     occupation numbers 
     1.0000   1.0000   1.0000   1.0000   1.0000   1.0000   1.0000   1.0000
    -0.0000  -0.0000  -0.0000  -0.0000

          k =-0.2505-0.2410 0.1483 (  1496 PWs)   bands (ev):

   -12.5820 -12.5820  -3.6916  -3.6916  -1.1311  -1.1311  -0.3235  -0.3235
    10.7523  10.7523  12.0354  12.0354

     occupation numbers 
     1.0000   1.0000   1.0000   1.0000   1.0000   1.0000   1.0000   1.0000
    -0.0000  -0.0000  -0.0000  -0.0000

          k = 0.3340-0.0964 0.1483 (  1496 PWs)   bands (ev):

   -12.5820 -12.5820  -3.6917  -3.6917  -1.1309  -1.1309  -0.3235  -0.3235
    10.7521  10.7521  12.0355  12.0355

     occupation numbers 
     1.0000   1.0000   1.0000   1.0000   1.0000   1.0000   1.0000   1.0000
    -0.0000  -0.0000  -0.0000  -0.0000

          k =-0.3340-0.2892 0.0000 (  1516 PWs)   bands (ev):

   -11.3397 -11.3061  -5.8221  -5.8038  -1.7701  -1.7633   0.8518   1.2757
     8.4528   8.6839  12.4245  13.1207

     occupation numbers 
     1.0000   1.0000   1.0000   1.0000   1.0000   1.0000   1.0000   1.0000
    -0.0000  -0.0000  -0.0000  -0.0000

          k = 0.4175-0.1446 0.0000 (  1516 PWs)   bands (ev):

   -11.3397 -11.3061  -5.8221  -5.8038  -1.7700  -1.7633   0.8519   1.2757
     8.4527   8.6838  12.4245  13.1208

     occupation numbers 
     1.0000   1.0000   1.0000   1.0000   1.0000   1.0000   1.0000   1.0000
    -0.0000  -0.0000  -0.0000  -0.0000

          k =-0.3340-0.2892-0.0741 (  1509 PWs)   bands (ev):

   -11.3348 -11.3110  -5.8194  -5.8064  -1.7691  -1.7643   0.9105   1.2099
     8.4818   8.6455  12.7195  13.1258

     occupation numbers 
     1.0000   1.0000   1.0000   1.0000   1.0000   1.0000   1.0000   1.0000
    -0.0000  -0.0000  -0.0000  -0.0000

          k = 0.4175-0.1446-0.0741 (  1509 PWs)   bands (ev):

   -11.3348 -11.3110  -5.8194  -5.8065  -1.7690  -1.7642   0.9105   1.2099
     8.4816   8.6454  12.7196  13.1260

     occupation numbers 
     1.0000   1.0000   1.0000   1.0000   1.0000   1.0000   1.0000   1.0000
    -0.0000  -0.0000  -0.0000  -0.0000

          k =-0.3340-0.2892 0.1483 (  1506 PWs)   bands (ev):

   -11.3229 -11.3229  -5.8129  -5.8129  -1.7667  -1.7667   1.0566   1.0566
     8.5590   8.5590  13.1069  13.1071

     occupation numbers 
     1.0000   1.0000   1.0000   1.0000   1.0000   1.0000   1.0000   1.0000
    -0.0000  -0.0000  -0.0000  -0.0000

          k = 0.4175-0.1446 0.1483 (  1506 PWs)   bands (ev):

   -11.3230 -11.3230  -5.8130  -5.8130  -1.7666  -1.7666   1.0567   1.0567
     8.5589   8.5589  13.1070  13.1070

     occupation numbers 
     1.0000   1.0000   1.0000   1.0000   1.0000   1.0000   1.0000   1.0000
    -0.0000  -0.0000  -0.0000  -0.0000

          k =-0.4175-0.3374 0.0000 (  1514 PWs)   bands (ev):

    -9.8578  -9.8308  -7.7640  -7.7428  -2.0991  -2.0920   2.2342   2.4993
     6.6862   6.9254  12.9458  13.0206

     occupation numbers 
     1.0000   1.0000   1.0000   1.0000   1.0000   1.0000   1.0000   1.0000
    -0.0005  -0.0001  -0.0000  -0.0000

          k = 0.5009-0.1928 0.0000 (  1514 PWs)   bands (ev):

    -9.8578  -9.8308  -7.7641  -7.7428  -2.0991  -2.0920   2.2342   2.4993
     6.6862   6.9253  12.9458  13.0206

     occupation numbers 
     1.0000   1.0000   1.0000   1.0000   1.0000   1.0000   1.0000   1.0000
    -0.0005  -0.0001  -0.0000  -0.0000

          k =-0.4175-0.3374-0.0741 (  1511 PWs)   bands (ev):

    -9.8539  -9.8347  -7.7610  -7.7459  -2.0980  -2.0931   2.2729   2.4604
     6.7137   6.8830  12.9568  13.0097

     occupation numbers 
     1.0000   1.0000   1.0000   1.0000   1.0000   1.0000   1.0000   1.0000
    -0.0004  -0.0001  -0.0000  -0.0000

          k = 0.5009-0.1928-0.0741 (  1511 PWs)   bands (ev):

    -9.8539  -9.8348  -7.7610  -7.7459  -2.0980  -2.0930   2.2729   2.4605
     6.7137   6.8829  12.9568  13.0097

     occupation numbers 
     1.0000   1.0000   1.0000   1.0000   1.0000   1.0000   1.0000   1.0000
    -0.0004  -0.0001  -0.0000  -0.0000

          k =-0.4175-0.3374 0.1483 (  1516 PWs)   bands (ev):

    -9.8443  -9.8443  -7.7534  -7.7534  -2.0956  -2.0956   2.3666   2.3666
     6.7909   6.7909  12.9833  12.9833

     occupation numbers 
     1.0000   1.0000   1.0000   1.0000   1.0000   1.0000   1.0000   1.0000
    -0.0002  -0.0002  -0.0000  -0.0000

          k = 0.5009-0.1928 0.1483 (  1516 PWs)   bands (ev):

    -9.8444  -9.8444  -7.7535  -7.7535  -2.0955  -2.0955   2.3666   2.3666
     6.7909   6.7909  12.9833  12.9833

     occupation numbers 
     1.0000   1.0000   1.0000   1.0000   1.0000   1.0000   1.0000   1.0000
    -0.0002  -0.0002  -0.0000  -0.0000

          k = 0.3340-0.0000 0.0000 (  1507 PWs)   bands (ev):

   -12.7611 -12.7228  -2.9528  -2.9468  -1.6073  -1.6029  -0.7406  -0.2434
    10.5497  11.1674  11.2675  13.7123

     occupation numbers 
     1.0000   1.0000   1.0000   1.0000   1.0000   1.0000   1.0000   1.0000
    -0.0000  -0.0000  -0.0000  -0.0000

          k = 0.3340-0.0000-0.0741 (  1508 PWs)   bands (ev):

   -12.7556 -12.7284  -2.9519  -2.9477  -1.6067  -1.6036  -0.6727  -0.3217
    10.8824  11.1819  11.2529  12.9925

     occupation numbers 
     1.0000   1.0000   1.0000   1.0000   1.0000   1.0000   1.0000   1.0000
    -0.0000  -0.0000  -0.0000  -0.0000

          k = 0.3340-0.0000 0.1483 (  1506 PWs)   bands (ev):

   -12.7420 -12.7420  -2.9498  -2.9498  -1.6051  -1.6051  -0.5023  -0.5023
    11.2170  11.2170  11.7921  11.7921

     occupation numbers 
     1.0000   1.0000   1.0000   1.0000   1.0000   1.0000   1.0000   1.0000
    -0.0000  -0.0000  -0.0000  -0.0000

          k =-0.2505-0.3374 0.0000 (  1509 PWs)   bands (ev):

   -11.6526 -11.6180  -4.6815  -4.6689  -2.6661  -2.6579   0.5349   0.9840
     9.2005   9.3437  12.0273  14.7918

     occupation numbers 
     1.0000   1.0000   1.0000   1.0000   1.0000   1.0000   1.0000   1.0000
    -0.0000  -0.0000  -0.0000  -0.0000

          k = 0.4175-0.0482 0.0000 (  1509 PWs)   bands (ev):

   -11.6527 -11.6180  -4.6818  -4.6693  -2.6657  -2.6576   0.5350   0.9841
     9.2002   9.3433  12.0273  15.0201

     occupation numbers 
     1.0000   1.0000   1.0000   1.0000   1.0000   1.0000   1.0000   1.0000
    -0.0000  -0.0000  -0.0000  -0.0000

          k =-0.2505-0.3374-0.0741 (  1510 PWs)   bands (ev):

   -11.6476 -11.6231  -4.6797  -4.6708  -2.6649  -2.6591   0.5967   0.9139
     9.2203   9.3218  12.3340  14.2001

     occupation numbers 
     1.0000   1.0000   1.0000   1.0000   1.0000   1.0000   1.0000   1.0000
    -0.0000  -0.0000  -0.0000  -0.0000

          k = 0.4175-0.0482-0.0741 (  1510 PWs)   bands (ev):

   -11.6476 -11.6231  -4.6800  -4.6711  -2.6645  -2.6588   0.5968   0.9140
     9.2200   9.3214  12.3341  14.2002

     occupation numbers 
     1.0000   1.0000   1.0000   1.0000   1.0000   1.0000   1.0000   1.0000
    -0.0000  -0.0000  -0.0000  -0.0000

          k =-0.2505-0.3374 0.1483 (  1520 PWs)   bands (ev):

   -11.6354 -11.6354  -4.6753  -4.6753  -2.6620  -2.6620   0.7511   0.7511
     9.2701   9.2701  13.1587  13.1587

     occupation numbers 
     1.0000   1.0000   1.0000   1.0000   1.0000   1.0000   1.0000   1.0000
    -0.0000  -0.0000  -0.0000  -0.0000

          k = 0.4175-0.0482 0.1483 (  1520 PWs)   bands (ev):

   -11.6354 -11.6354  -4.6756  -4.6756  -2.6616  -2.6616   0.7512   0.7512
     9.2697   9.2697  13.1587  13.1587

     occupation numbers 
     1.0000   1.0000   1.0000   1.0000   1.0000   1.0000   1.0000   1.0000
    -0.0000  -0.0000  -0.0000  -0.0000

          k =-0.3340-0.3856 0.0000 (  1516 PWs)   bands (ev):

   -10.2757 -10.2458  -6.5942  -6.5754  -3.2431  -3.2328   2.0042   2.3617
     7.2662   7.4599  13.8827  14.8139

     occupation numbers 
     1.0000   1.0000   1.0000   1.0000   1.0000   1.0000   1.0000   1.0000
    -0.0000  -0.0000  -0.0000  -0.0000

          k = 0.5009-0.0964 0.0000 (  1516 PWs)   bands (ev):

   -10.2757 -10.2458  -6.5943  -6.5755  -3.2430  -3.2326   2.0043   2.3619
     7.2660   7.4596  13.8827  14.8141

     occupation numbers 
     1.0000   1.0000   1.0000   1.0000   1.0000   1.0000   1.0000   1.0000
    -0.0000  -0.0000  -0.0000  -0.0000

          k =-0.3340-0.3856-0.0741 (  1519 PWs)   bands (ev):

   -10.2713 -10.2502  -6.5914  -6.5781  -3.2416  -3.2343   2.0544   2.3071
     7.2917   7.4289  14.1281  14.8195

     occupation numbers 
     1.0000   1.0000   1.0000   1.0000   1.0000   1.0000   1.0000   1.0000
    -0.0000  -0.0000  -0.0000  -0.0000

          k = 0.5009-0.0964-0.0741 (  1519 PWs)   bands (ev):

   -10.2713 -10.2502  -6.5915  -6.5782  -3.2415  -3.2342   2.0546   2.3072
     7.2915   7.4286  14.1281  14.8197

     occupation numbers 
     1.0000   1.0000   1.0000   1.0000   1.0000   1.0000   1.0000   1.0000
    -0.0000  -0.0000  -0.0000  -0.0000

          k =-0.3340-0.3856 0.1483 (  1520 PWs)   bands (ev):

   -10.2608 -10.2608  -6.5848  -6.5848  -3.2380  -3.2380   2.1785   2.1785
     7.3576   7.3576  14.6896  14.6896

     occupation numbers 
     1.0000   1.0000   1.0000   1.0000   1.0000   1.0000   1.0000   1.0000
    -0.0000  -0.0000  -0.0000  -0.0000

          k = 0.5009-0.0964 0.1483 (  1520 PWs)   bands (ev):

   -10.2608 -10.2608  -6.5849  -6.5849  -3.2378  -3.2378   2.1787   2.1787
     7.3574   7.3574  14.6899  14.6899

     occupation numbers 
     1.0000   1.0000   1.0000   1.0000   1.0000   1.0000   1.0000   1.0000
    -0.0000  -0.0000  -0.0000  -0.0000

          k =-0.4175-0.4338 0.0000 (  1513 PWs)   bands (ev):

    -9.0334  -9.0192  -8.0250  -8.0145  -3.4282  -3.4173   2.9841   3.1527
     6.2366   6.3678  14.7160  14.8559

     occupation numbers 
     1.0000   1.0000   1.0000   1.0000   1.0000   1.0000   1.0004   1.0012
    -0.0072  -0.0036  -0.0000  -0.0000

          k =-0.4175-0.4338-0.0741 (  1520 PWs)   bands (ev):

    -9.0313  -9.0213  -8.0235  -8.0161  -3.4266  -3.4189   3.0104   3.1298
     6.2490   6.3421  14.7341  14.8322

     occupation numbers 
     1.0000   1.0000   1.0000   1.0000   1.0000   1.0000   1.0004   1.0010
    -0.0068  -0.0042  -0.0000  -0.0000

          k =-0.4175-0.4338 0.1483 (  1528 PWs)   bands (ev):

    -9.0262  -9.0262  -8.0199  -8.0199  -3.4228  -3.4228   3.0719   3.0719
     6.2890   6.2890  14.7800  14.7800

     occupation numbers 
     1.0000   1.0000   1.0000   1.0000   1.0000   1.0000   1.0007   1.0007
    -0.0055  -0.0055  -0.0000  -0.0000

          k = 0.5009 0.0000 0.0000 (  1513 PWs)   bands (ev):

   -10.4237 -10.3931  -5.7141  -5.7050  -4.1478  -4.1408   1.9074   2.2935
     7.5884   7.7242  13.6816  15.4298

     occupation numbers 
     1.0000   1.0000   1.0000   1.0000   1.0000   1.0000   1.0000   1.0000
    -0.0000  -0.0000  -0.0000  -0.0000

          k = 0.5009 0.0000-0.0741 (  1528 PWs)   bands (ev):

   -10.4193 -10.3976  -5.7128  -5.7064  -4.1468  -4.1419   1.9611   2.2339
     7.6081   7.7041  13.9118  15.1279

     occupation numbers 
     1.0000   1.0000   1.0000   1.0000   1.0000   1.0000   1.0000   1.0000
    -0.0000  -0.0000  -0.0000  -0.0000

          k = 0.5009 0.0000 0.1483 (  1530 PWs)   bands (ev):

   -10.4085 -10.4085  -5.7096  -5.7096  -4.1444  -4.1444   2.0946   2.0946
     7.6560   7.6560  14.4913  14.4913

     occupation numbers 
     1.0000   1.0000   1.0000   1.0000   1.0000   1.0000   1.0000   1.0000
    -0.0000  -0.0000  -0.0000  -0.0000

          k =-0.3340-0.4820 0.0000 (  1523 PWs)   bands (ev):

    -8.9993  -8.9751  -7.1375  -7.1218  -4.8577  -4.8460   3.3498   3.6132
     6.0746   6.2045  15.6270  15.6837

     occupation numbers 
     1.0000   1.0000   1.0000   1.0000   1.0000   1.0000   1.0038   1.0135
    -0.0146  -0.0084  -0.0000  -0.0000

          k = 0.5844-0.0482 0.0000 (  1523 PWs)   bands (ev):

    -8.9993  -8.9751  -7.1377  -7.1220  -4.8576  -4.8458   3.3500   3.6134
     6.0744   6.2041  15.6270  15.6838

     occupation numbers 
     1.0000   1.0000   1.0000   1.0000   1.0000   1.0000   1.0038   1.0136
    -0.0146  -0.0084  -0.0000  -0.0000

          k =-0.3340-0.4820-0.0741 (  1528 PWs)   bands (ev):

    -8.9958  -8.9787  -7.1352  -7.1242  -4.8560  -4.8478   3.3880   3.5743
     6.0916   6.1836  15.4555  15.5469

     occupation numbers 
     1.0000   1.0000   1.0000   1.0000   1.0000   1.0000   1.0047   1.0115
    -0.0137  -0.0092  -0.0000  -0.0000

          k = 0.5844-0.0482-0.0741 (  1528 PWs)   bands (ev):

    -8.9957  -8.9787  -7.1354  -7.1244  -4.8559  -4.8476   3.3882   3.5745
     6.0914   6.1832  15.4556  15.5470

     occupation numbers 
     1.0000   1.0000   1.0000   1.0000   1.0000   1.0000   1.0047   1.0115
    -0.0137  -0.0092  -0.0000  -0.0000

          k =-0.3340-0.4820 0.1483 (  1536 PWs)   bands (ev):

    -8.9873  -8.9873  -7.1297  -7.1297  -4.8519  -4.8519   3.4808   3.4808
     6.1357   6.1357  15.3911  15.3911

     occupation numbers 
     1.0000   1.0000   1.0000   1.0000   1.0000   1.0000   1.0075   1.0075
    -0.0114  -0.0114  -0.0000  -0.0000

          k = 0.5844-0.0482 0.1483 (  1536 PWs)   bands (ev):

    -8.9872  -8.9872  -7.1299  -7.1299  -4.8517  -4.8517   3.4810   3.4810
     6.1354   6.1354  15.3912  15.3913

     occupation numbers 
     1.0000   1.0000   1.0000   1.0000   1.0000   1.0000   1.0076   1.0076
    -0.0114  -0.0114  -0.0000  -0.0000

     the Fermi energy is     4.8536 ev

!    total energy              =     -49.71413034 Ry
     estimated scf accuracy    <          1.8E-10 Ry
     smearing contrib. (-TS)   =       0.00011411 Ry
     internal energy E=F+TS    =     -49.71424445 Ry

     The total energy is F=E-TS. E is the sum of the following terms:
     one-electron contribution =     -30.04789755 Ry
     hartree contribution      =      21.82761896 Ry
     xc contribution           =     -18.55491852 Ry
     ewald contribution        =     -22.93904734 Ry

     convergence has been achieved in   7 iterations

     Forces acting on atoms (cartesian axes, Ry/au):

     atom    1 type  1   force =     0.00000000    0.00011205    0.00000000
     atom    2 type  1   force =     0.00000000   -0.00011205    0.00000000
     atom    3 type  1   force =    -0.00000000   -0.00011123    0.00000000
     atom    4 type  1   force =     0.00000000    0.00011123    0.00000000
     The non-local contrib.  to forces
     atom    1 type  1   force =     0.00000000    0.00010034    0.00000000
     atom    2 type  1   force =    -0.00000000   -0.00010034    0.00000000
     atom    3 type  1   force =     0.00000000   -0.00010010    0.00000000
     atom    4 type  1   force =     0.00000000    0.00010010    0.00000000
     The ionic contribution  to forces
     atom    1 type  1   force =     0.00000000    0.00037531   -0.00000000
     atom    2 type  1   force =    -0.00000000   -0.00037531    0.00000000
     atom    3 type  1   force =    -0.00000000   -0.00037532    0.00000000
     atom    4 type  1   force =    -0.00000000    0.00037532    0.00000000
     The local contribution  to forces
     atom    1 type  1   force =     0.00000000   -0.00036081    0.00000000
     atom    2 type  1   force =    -0.00000000    0.00036081   -0.00000000
     atom    3 type  1   force =    -0.00000000    0.00036072    0.00000000
     atom    4 type  1   force =     0.00000000   -0.00036072   -0.00000000
     The core correction contribution to forces
     atom    1 type  1   force =     0.00000000   -0.00000272    0.00000000
     atom    2 type  1   force =     0.00000000    0.00000272   -0.00000000
     atom    3 type  1   force =     0.00000000    0.00000349   -0.00000000
     atom    4 type  1   force =    -0.00000000   -0.00000349   -0.00000000
     The Hubbard contrib.    to forces
     atom    1 type  1   force =     0.00000000    0.00000000    0.00000000
     atom    2 type  1   force =     0.00000000    0.00000000    0.00000000
     atom    3 type  1   force =     0.00000000    0.00000000    0.00000000
     atom    4 type  1   force =     0.00000000    0.00000000    0.00000000
     The SCF correction term to forces
     atom    1 type  1   force =    -0.00000000   -0.00000006   -0.00000000
     atom    2 type  1   force =    -0.00000000    0.00000006    0.00000000
     atom    3 type  1   force =     0.00000000   -0.00000002   -0.00000000
     atom    4 type  1   force =     0.00000000    0.00000002   -0.00000000

     Total force =     0.000223     Total SCF correction =     0.000000


     Computing stress (Cartesian axis) and pressure

          total   stress  (Ry/bohr**3)                   (kbar)     P=        0.09
   0.00000100  -0.00000000   0.00000000            0.15       -0.00        0.00
  -0.00000000   0.00000044   0.00000000           -0.00        0.06        0.00
   0.00000000   0.00000000   0.00000050            0.00        0.00        0.07

     kinetic stress (kbar)   9322.09      0.00      0.00
                                0.00   9322.36      0.00
                                0.00     -0.00  10580.45

     local   stress (kbar) -26993.58     -0.00     -0.00
                               -0.00 -26991.90     -0.00
                               -0.00     -0.00  27339.06

     nonloc. stress (kbar)   1809.17      0.00      0.00
                                0.00   1809.11      0.00
                                0.00      0.00   1661.46

     hartree stress (kbar)  10023.83     -0.00      0.00
                               -0.00  10023.59     -0.00
                                0.00     -0.00  -9195.81

     exc-cor stress (kbar)   -167.73      0.00     -0.00
                                0.00   -167.75     -0.00
                               -0.00     -0.00   -273.09

     corecor stress (kbar)  -2245.21      0.00      0.00
                                0.00  -2245.20     -0.00
                                0.00     -0.00  -2206.40

     ewald   stress (kbar)   8251.58      0.00     -0.00
                                0.00   8249.84      0.00
                               -0.00      0.00 -27905.58

     hubbard stress (kbar)      0.00      0.00      0.00
                                0.00      0.00      0.00
                                0.00      0.00      0.00

     DFT-D   stress (kbar)      0.00      0.00      0.00
                                0.00      0.00      0.00
                                0.00      0.00      0.00

     XDM     stress (kbar)      0.00      0.00      0.00
                                0.00      0.00      0.00
                                0.00      0.00      0.00

     dft-nl  stress (kbar)      0.00      0.00      0.00
                                0.00      0.00      0.00
                                0.00      0.00      0.00

     TS-vdW  stress (kbar)      0.00      0.00      0.00
                                0.00      0.00      0.00
                                0.00      0.00      0.00



     Writing output data file ./tmp/C_k12.save/

     init_run     :      4.34s CPU      4.57s WALL (       1 calls)
     electrons    :     55.65s CPU     58.67s WALL (       1 calls)
     forces       :      2.67s CPU      2.84s WALL (       1 calls)
     stress       :      4.59s CPU      4.64s WALL (       1 calls)

     Called by init_run:
     wfcinit      :      3.17s CPU      3.33s WALL (       1 calls)
     wfcinit:atom :      0.10s CPU      0.11s WALL (     129 calls)
     wfcinit:wfcr :      2.46s CPU      2.60s WALL (     129 calls)
     potinit      :      0.32s CPU      0.34s WALL (       1 calls)
     hinit0       :      0.71s CPU      0.72s WALL (       1 calls)

     Called by electrons:
     c_bands      :     43.90s CPU     46.44s WALL (       7 calls)
     sum_band     :      9.93s CPU     10.35s WALL (       7 calls)
     v_of_rho     :      1.43s CPU      1.48s WALL (       8 calls)
     v_h          :      0.10s CPU      0.11s WALL (       8 calls)
     v_xc         :      1.79s CPU      1.84s WALL (      10 calls)
     newd         :      0.45s CPU      0.49s WALL (       8 calls)
     mix_rho      :      0.09s CPU      0.09s WALL (       7 calls)

     Called by c_bands:
     init_us_2    :      2.39s CPU      2.50s WALL (    2193 calls)
     cegterg      :     41.31s CPU     43.73s WALL (     903 calls)

     Called by sum_band:
     sum_band:wei :      0.15s CPU      0.16s WALL (       7 calls)
     sum_band:loo :      9.13s CPU      9.54s WALL (       7 calls)
     sum_band:buf :      0.09s CPU      0.10s WALL (     903 calls)
     sum_band:ini :      1.03s CPU      1.10s WALL (     903 calls)
     sum_band:cal :      0.79s CPU      0.83s WALL (     903 calls)
     sum_band:bec :      0.05s CPU      0.06s WALL (     903 calls)
     addusdens    :      0.33s CPU      0.34s WALL (       7 calls)
     addusd:skk   :      0.01s CPU      0.01s WALL (       7 calls)
     addusd:dgemm :      0.08s CPU      0.09s WALL (       7 calls)
     addusd:qvan2 :      0.14s CPU      0.15s WALL (       7 calls)

     Called by *egterg:
     cdiaghg      :      1.48s CPU      1.59s WALL (    3935 calls)
     cegterg:over :      2.05s CPU      2.18s WALL (    3032 calls)
     cegterg:upda :      1.36s CPU      1.44s WALL (    3032 calls)
     cegterg:last :      2.11s CPU      2.23s WALL (    1996 calls)
     h_psi        :     33.00s CPU     34.95s WALL (    4064 calls)
     s_psi        :      1.90s CPU      2.03s WALL (    4064 calls)
     g_psi        :      0.40s CPU      0.42s WALL (    3032 calls)

     Called by h_psi:
     h_psi:calbec :      2.27s CPU      2.42s WALL (    4064 calls)
     vloc_psi     :     28.35s CPU     29.97s WALL (    4064 calls)
     add_vuspsi   :      2.05s CPU      2.22s WALL (    4064 calls)

     General routines
     calbec       :      4.30s CPU      4.61s WALL (    5612 calls)
     fft          :      1.00s CPU      1.01s WALL (     127 calls)
     ffts         :      0.02s CPU      0.02s WALL (      15 calls)
     fftw         :     28.06s CPU     29.63s WALL (   73482 calls)
     interpolate  :      0.10s CPU      0.10s WALL (       8 calls)

     Parallel routines

     PWSCF        :   1m 7.46s CPU   1m11.07s WALL


   This run was terminated on:  22:33:50  26May2022            

=------------------------------------------------------------------------------=
   JOB DONE.
=------------------------------------------------------------------------------=
