
     Program PWSCF v.6.7MaX starts on 26May2022 at 23:30:52 

     This program is part of the open-source Quantum ESPRESSO suite
     for quantum simulation of materials; please cite
         "P. Giannozzi et al., J. Phys.:Condens. Matter 21 395502 (2009);
         "P. Giannozzi et al., J. Phys.:Condens. Matter 29 465901 (2017);
          URL http://www.quantum-espresso.org", 
     in publications or presentations arising from this work. More details at
     http://www.quantum-espresso.org/quote

     Parallel version (MPI), running on     1 processors

     MPI processes distributed on     1 nodes
     Waiting for input...
     Reading input from standard input

     Current dimensions of program PWSCF are:
     Max number of different atomic species (ntypx) = 10
     Max number of k-points (npk) =  40000
     Max angular momentum in pseudopotentials (lmaxx) =  3

     Atomic positions and unit cell read from directory:
     ./tmp/C_k30.save/
     Atomic positions from file used, from input discarded


     Subspace diagonalization in iterative solution of the eigenvalue problem:
     a serial algorithm will be used

     Message from routine setup:
     using ibrav=0 with symmetry is DISCOURAGED, use correct ibrav instead

     G-vector sticks info
     --------------------
     sticks:   dense  smooth     PW     G-vecs:    dense   smooth      PW
     Sum         547     265     85                34133    11995    2223



     bravais-lattice index     =            0
     lattice parameter (alat)  =       4.6676  a.u.
     unit-cell volume          =     295.8966 (a.u.)^3
     number of atoms/cell      =            4
     number of atomic types    =            1
     number of electrons       =        16.00
     number of Kohn-Sham states=           16
     kinetic-energy cutoff     =      45.0000  Ry
     charge density cutoff     =     360.0000  Ry
     Exchange-correlation= PBE
                           (   1   4   3   4   0   0   0)

     celldm(1)=   4.667624  celldm(2)=   0.000000  celldm(3)=   0.000000
     celldm(4)=   0.000000  celldm(5)=   0.000000  celldm(6)=   0.000000

     crystal axes: (cart. coord. in units of alat)
               a(1) = (   0.998113   0.000000   0.000000 )  
               a(2) = (  -0.499057   0.864391   0.000000 )  
               a(3) = (   0.000000   0.000000   3.372580 )  

     reciprocal axes: (cart. coord. in units 2 pi/alat)
               b(1) = (  1.001890  0.578442 -0.000000 )  
               b(2) = (  0.000000  1.156883  0.000000 )  
               b(3) = (  0.000000 -0.000000  0.296509 )  


     PseudoPot. # 1 for C  read from file:
     /home/max/Desktop/graphite_DFT/Pseudo/C.pbe-n-rrkjus_psl.1.0.0.UPF
     MD5 check sum: 1fdd950c42eb37d8afe3dd2f8d12311e
     Pseudo is Ultrasoft + core correction, Zval =  4.0
     Generated using &quot;atomic&quot; code by A. Dal Corso  v.6.3MaX
     Using radial grid of 1073 points,  4 beta functions with: 
                l(1) =   0
                l(2) =   0
                l(3) =   1
                l(4) =   1
     Q(r) pseudized with 0 coefficients 


     atomic species   valence    mass     pseudopotential
        C              4.00    12.01100     C ( 1.00)

      8 Sym. Ops., with inversion, found ( 4 have fractional translation)


                                    s                        frac. trans.

      isym =  1     identity                                     

 cryst.   s( 1) = (     1          0          0      )
                  (     0          1          0      )
                  (     0          0          1      )

 cart.    s( 1) = (  1.0000000  0.0000000  0.0000000 )
                  (  0.0000000  1.0000000  0.0000000 )
                  (  0.0000000  0.0000000  1.0000000 )


      isym =  2     180 deg rotation - cart. axis [0,0,1]        

 cryst.   s( 2) = (    -1          0          0      )    f =(  0.0000000 )
                  (     0         -1          0      )       (  0.0000000 )
                  (     0          0          1      )       ( -0.5000000 )

 cart.    s( 2) = ( -1.0000000  0.0000000  0.0000000 )    f =(  0.0000000 )
                  (  0.0000000 -1.0000000  0.0000000 )       (  0.0000000 )
                  (  0.0000000  0.0000000  1.0000000 )       ( -1.6862899 )


      isym =  3     180 deg rotation - cart. axis [0,1,0]        

 cryst.   s( 3) = (    -1          0          0      )    f =(  0.0000000 )
                  (     1          1          0      )       (  0.0000000 )
                  (     0          0         -1      )       (  0.5000000 )

 cart.    s( 3) = ( -1.0000000  0.0000000  0.0000000 )    f =(  0.0000000 )
                  (  0.0000000  1.0000000  0.0000000 )       (  0.0000000 )
                  (  0.0000000  0.0000000 -1.0000000 )       (  1.6862899 )


      isym =  4     180 deg rotation - cart. axis [1,0,0]        

 cryst.   s( 4) = (     1          0          0      )
                  (    -1         -1          0      )
                  (     0          0         -1      )

 cart.    s( 4) = (  1.0000000  0.0000000  0.0000000 )
                  (  0.0000000 -1.0000000  0.0000000 )
                  (  0.0000000  0.0000000 -1.0000000 )


      isym =  5     inversion                                    

 cryst.   s( 5) = (    -1          0          0      )
                  (     0         -1          0      )
                  (     0          0         -1      )

 cart.    s( 5) = ( -1.0000000  0.0000000  0.0000000 )
                  (  0.0000000 -1.0000000  0.0000000 )
                  (  0.0000000  0.0000000 -1.0000000 )


      isym =  6     inv. 180 deg rotation - cart. axis [0,0,1]   

 cryst.   s( 6) = (     1          0          0      )    f =(  0.0000000 )
                  (     0          1          0      )       (  0.0000000 )
                  (     0          0         -1      )       (  0.5000000 )

 cart.    s( 6) = (  1.0000000  0.0000000  0.0000000 )    f =(  0.0000000 )
                  (  0.0000000  1.0000000  0.0000000 )       (  0.0000000 )
                  (  0.0000000  0.0000000 -1.0000000 )       (  1.6862899 )


      isym =  7     inv. 180 deg rotation - cart. axis [0,1,0]   

 cryst.   s( 7) = (     1          0          0      )    f =(  0.0000000 )
                  (    -1         -1          0      )       (  0.0000000 )
                  (     0          0          1      )       ( -0.5000000 )

 cart.    s( 7) = (  1.0000000  0.0000000  0.0000000 )    f =(  0.0000000 )
                  (  0.0000000 -1.0000000  0.0000000 )       (  0.0000000 )
                  (  0.0000000  0.0000000  1.0000000 )       ( -1.6862899 )


      isym =  8     inv. 180 deg rotation - cart. axis [1,0,0]   

 cryst.   s( 8) = (    -1          0          0      )
                  (     1          1          0      )
                  (     0          0          1      )

 cart.    s( 8) = ( -1.0000000  0.0000000  0.0000000 )
                  (  0.0000000  1.0000000  0.0000000 )
                  (  0.0000000  0.0000000  1.0000000 )


   Cartesian axes

     site n.     atom                  positions (alat units)
         1           C   tau(   1) = (   0.0000000  -0.0000396   0.8431450  )
         2           C   tau(   2) = (   0.0000000   0.0000396   2.5294349  )
         3           C   tau(   3) = (   0.0000000   0.5762433   0.8431450  )
         4           C   tau(   4) = (   0.4990566   0.2881481   2.5294349  )

   Crystallographic axes

     site n.     atom                  positions (cryst. coord.)
         1           C   tau(   1) = ( -0.0000229 -0.0000458  0.2500000  )
         2           C   tau(   2) = (  0.0000229  0.0000458  0.7500000  )
         3           C   tau(   3) = (  0.3333231  0.6666463  0.2500000  )
         4           C   tau(   4) = (  0.6666769  0.3333537  0.7500000  )

     number of k points=  1446 (tetrahedron method)
                       cart. coord. in units 2pi/alat
        k(    1) = (   0.0000000   0.0000000   0.0000000), wk =   0.0002222
        k(    2) = (   0.0000000   0.0000000   0.0296509), wk =   0.0004444
        k(    3) = (   0.0000000   0.0000000   0.0593018), wk =   0.0004444
        k(    4) = (   0.0000000   0.0000000   0.0889527), wk =   0.0004444
        k(    5) = (   0.0000000   0.0000000   0.1186036), wk =   0.0004444
        k(    6) = (   0.0000000   0.0000000  -0.1482545), wk =   0.0002222
        k(    7) = (   0.0000000   0.0385628   0.0000000), wk =   0.0004444
        k(    8) = (   0.0000000   0.0385628   0.0296509), wk =   0.0008889
        k(    9) = (   0.0000000   0.0385628   0.0593018), wk =   0.0008889
        k(   10) = (   0.0000000   0.0385628   0.0889527), wk =   0.0008889
        k(   11) = (   0.0000000   0.0385628   0.1186036), wk =   0.0008889
        k(   12) = (   0.0000000   0.0385628  -0.1482545), wk =   0.0004444
        k(   13) = (   0.0000000   0.0771256   0.0000000), wk =   0.0004444
        k(   14) = (   0.0000000   0.0771256   0.0296509), wk =   0.0008889
        k(   15) = (   0.0000000   0.0771256   0.0593018), wk =   0.0008889
        k(   16) = (   0.0000000   0.0771256   0.0889527), wk =   0.0008889
        k(   17) = (   0.0000000   0.0771256   0.1186036), wk =   0.0008889
        k(   18) = (   0.0000000   0.0771256  -0.1482545), wk =   0.0004444
        k(   19) = (   0.0000000   0.1156883   0.0000000), wk =   0.0004444
        k(   20) = (   0.0000000   0.1156883   0.0296509), wk =   0.0008889
        k(   21) = (   0.0000000   0.1156883   0.0593018), wk =   0.0008889
        k(   22) = (   0.0000000   0.1156883   0.0889527), wk =   0.0008889
        k(   23) = (   0.0000000   0.1156883   0.1186036), wk =   0.0008889
        k(   24) = (   0.0000000   0.1156883  -0.1482545), wk =   0.0004444
        k(   25) = (   0.0000000   0.1542511   0.0000000), wk =   0.0004444
        k(   26) = (   0.0000000   0.1542511   0.0296509), wk =   0.0008889
        k(   27) = (   0.0000000   0.1542511   0.0593018), wk =   0.0008889
        k(   28) = (   0.0000000   0.1542511   0.0889527), wk =   0.0008889
        k(   29) = (   0.0000000   0.1542511   0.1186036), wk =   0.0008889
        k(   30) = (   0.0000000   0.1542511  -0.1482545), wk =   0.0004444
        k(   31) = (   0.0000000   0.1928139   0.0000000), wk =   0.0004444
        k(   32) = (   0.0000000   0.1928139   0.0296509), wk =   0.0008889
        k(   33) = (   0.0000000   0.1928139   0.0593018), wk =   0.0008889
        k(   34) = (   0.0000000   0.1928139   0.0889527), wk =   0.0008889
        k(   35) = (   0.0000000   0.1928139   0.1186036), wk =   0.0008889
        k(   36) = (   0.0000000   0.1928139  -0.1482545), wk =   0.0004444
        k(   37) = (   0.0000000   0.2313767   0.0000000), wk =   0.0004444
        k(   38) = (   0.0000000   0.2313767   0.0296509), wk =   0.0008889
        k(   39) = (   0.0000000   0.2313767   0.0593018), wk =   0.0008889
        k(   40) = (   0.0000000   0.2313767   0.0889527), wk =   0.0008889
        k(   41) = (   0.0000000   0.2313767   0.1186036), wk =   0.0008889
        k(   42) = (   0.0000000   0.2313767  -0.1482545), wk =   0.0004444
        k(   43) = (   0.0000000   0.2699395   0.0000000), wk =   0.0004444
        k(   44) = (   0.0000000   0.2699395   0.0296509), wk =   0.0008889
        k(   45) = (   0.0000000   0.2699395   0.0593018), wk =   0.0008889
        k(   46) = (   0.0000000   0.2699395   0.0889527), wk =   0.0008889
        k(   47) = (   0.0000000   0.2699395   0.1186036), wk =   0.0008889
        k(   48) = (   0.0000000   0.2699395  -0.1482545), wk =   0.0004444
        k(   49) = (   0.0000000   0.3085022   0.0000000), wk =   0.0004444
        k(   50) = (   0.0000000   0.3085022   0.0296509), wk =   0.0008889
        k(   51) = (   0.0000000   0.3085022   0.0593018), wk =   0.0008889
        k(   52) = (   0.0000000   0.3085022   0.0889527), wk =   0.0008889
        k(   53) = (   0.0000000   0.3085022   0.1186036), wk =   0.0008889
        k(   54) = (   0.0000000   0.3085022  -0.1482545), wk =   0.0004444
        k(   55) = (   0.0000000   0.3470650   0.0000000), wk =   0.0004444
        k(   56) = (   0.0000000   0.3470650   0.0296509), wk =   0.0008889
        k(   57) = (   0.0000000   0.3470650   0.0593018), wk =   0.0008889
        k(   58) = (   0.0000000   0.3470650   0.0889527), wk =   0.0008889
        k(   59) = (   0.0000000   0.3470650   0.1186036), wk =   0.0008889
        k(   60) = (   0.0000000   0.3470650  -0.1482545), wk =   0.0004444
        k(   61) = (   0.0000000   0.3856278   0.0000000), wk =   0.0004444
        k(   62) = (   0.0000000   0.3856278   0.0296509), wk =   0.0008889
        k(   63) = (   0.0000000   0.3856278   0.0593018), wk =   0.0008889
        k(   64) = (   0.0000000   0.3856278   0.0889527), wk =   0.0008889
        k(   65) = (   0.0000000   0.3856278   0.1186036), wk =   0.0008889
        k(   66) = (   0.0000000   0.3856278  -0.1482545), wk =   0.0004444
        k(   67) = (   0.0000000   0.4241906   0.0000000), wk =   0.0004444
        k(   68) = (   0.0000000   0.4241906   0.0296509), wk =   0.0008889
        k(   69) = (   0.0000000   0.4241906   0.0593018), wk =   0.0008889
        k(   70) = (   0.0000000   0.4241906   0.0889527), wk =   0.0008889
        k(   71) = (   0.0000000   0.4241906   0.1186036), wk =   0.0008889
        k(   72) = (   0.0000000   0.4241906  -0.1482545), wk =   0.0004444
        k(   73) = (   0.0000000   0.4627533   0.0000000), wk =   0.0004444
        k(   74) = (   0.0000000   0.4627533   0.0296509), wk =   0.0008889
        k(   75) = (   0.0000000   0.4627533   0.0593018), wk =   0.0008889
        k(   76) = (   0.0000000   0.4627533   0.0889527), wk =   0.0008889
        k(   77) = (   0.0000000   0.4627533   0.1186036), wk =   0.0008889
        k(   78) = (   0.0000000   0.4627533  -0.1482545), wk =   0.0004444
        k(   79) = (   0.0000000   0.5013161   0.0000000), wk =   0.0004444
        k(   80) = (   0.0000000   0.5013161   0.0296509), wk =   0.0008889
        k(   81) = (   0.0000000   0.5013161   0.0593018), wk =   0.0008889
        k(   82) = (   0.0000000   0.5013161   0.0889527), wk =   0.0008889
        k(   83) = (   0.0000000   0.5013161   0.1186036), wk =   0.0008889
        k(   84) = (   0.0000000   0.5013161  -0.1482545), wk =   0.0004444
        k(   85) = (   0.0000000   0.5398789   0.0000000), wk =   0.0004444
        k(   86) = (   0.0000000   0.5398789   0.0296509), wk =   0.0008889
        k(   87) = (   0.0000000   0.5398789   0.0593018), wk =   0.0008889
        k(   88) = (   0.0000000   0.5398789   0.0889527), wk =   0.0008889
        k(   89) = (   0.0000000   0.5398789   0.1186036), wk =   0.0008889
        k(   90) = (   0.0000000   0.5398789  -0.1482545), wk =   0.0004444
        k(   91) = (   0.0000000  -0.5784417   0.0000000), wk =   0.0002222
        k(   92) = (   0.0000000  -0.5784417   0.0296509), wk =   0.0004444
        k(   93) = (   0.0000000  -0.5784417   0.0593018), wk =   0.0004444
        k(   94) = (   0.0000000  -0.5784417   0.0889527), wk =   0.0004444
        k(   95) = (   0.0000000  -0.5784417   0.1186036), wk =   0.0004444
        k(   96) = (   0.0000000  -0.5784417  -0.1482545), wk =   0.0002222
        k(   97) = (   0.0333963   0.0578442   0.0000000), wk =   0.0008889
        k(   98) = (   0.0333963   0.0578442   0.0296509), wk =   0.0017778
        k(   99) = (   0.0333963   0.0578442   0.0593018), wk =   0.0017778
        k(  100) = (   0.0333963   0.0578442   0.0889527), wk =   0.0017778
        k(  101) = (   0.0333963   0.0578442   0.1186036), wk =   0.0017778
        k(  102) = (   0.0333963   0.0578442  -0.1482545), wk =   0.0008889
        k(  103) = (   0.0333963   0.0964069   0.0000000), wk =   0.0008889
        k(  104) = (   0.0333963   0.0964069   0.0296509), wk =   0.0017778
        k(  105) = (   0.0333963   0.0964069   0.0593018), wk =   0.0017778
        k(  106) = (   0.0333963   0.0964069   0.0889527), wk =   0.0017778
        k(  107) = (   0.0333963   0.0964069   0.1186036), wk =   0.0017778
        k(  108) = (   0.0333963   0.0964069  -0.1482545), wk =   0.0008889
        k(  109) = (   0.0333963   0.1349697   0.0000000), wk =   0.0008889
        k(  110) = (   0.0333963   0.1349697   0.0296509), wk =   0.0017778
        k(  111) = (   0.0333963   0.1349697   0.0593018), wk =   0.0017778
        k(  112) = (   0.0333963   0.1349697   0.0889527), wk =   0.0017778
        k(  113) = (   0.0333963   0.1349697   0.1186036), wk =   0.0017778
        k(  114) = (   0.0333963   0.1349697  -0.1482545), wk =   0.0008889
        k(  115) = (   0.0333963   0.1735325   0.0000000), wk =   0.0008889
        k(  116) = (   0.0333963   0.1735325   0.0296509), wk =   0.0017778
        k(  117) = (   0.0333963   0.1735325   0.0593018), wk =   0.0017778
        k(  118) = (   0.0333963   0.1735325   0.0889527), wk =   0.0017778
        k(  119) = (   0.0333963   0.1735325   0.1186036), wk =   0.0017778
        k(  120) = (   0.0333963   0.1735325  -0.1482545), wk =   0.0008889
        k(  121) = (   0.0333963   0.2120953   0.0000000), wk =   0.0008889
        k(  122) = (   0.0333963   0.2120953   0.0296509), wk =   0.0017778
        k(  123) = (   0.0333963   0.2120953   0.0593018), wk =   0.0017778
        k(  124) = (   0.0333963   0.2120953   0.0889527), wk =   0.0017778
        k(  125) = (   0.0333963   0.2120953   0.1186036), wk =   0.0017778
        k(  126) = (   0.0333963   0.2120953  -0.1482545), wk =   0.0008889
        k(  127) = (   0.0333963   0.2506581   0.0000000), wk =   0.0008889
        k(  128) = (   0.0333963   0.2506581   0.0296509), wk =   0.0017778
        k(  129) = (   0.0333963   0.2506581   0.0593018), wk =   0.0017778
        k(  130) = (   0.0333963   0.2506581   0.0889527), wk =   0.0017778
        k(  131) = (   0.0333963   0.2506581   0.1186036), wk =   0.0017778
        k(  132) = (   0.0333963   0.2506581  -0.1482545), wk =   0.0008889
        k(  133) = (   0.0333963   0.2892208   0.0000000), wk =   0.0008889
        k(  134) = (   0.0333963   0.2892208   0.0296509), wk =   0.0017778
        k(  135) = (   0.0333963   0.2892208   0.0593018), wk =   0.0017778
        k(  136) = (   0.0333963   0.2892208   0.0889527), wk =   0.0017778
        k(  137) = (   0.0333963   0.2892208   0.1186036), wk =   0.0017778
        k(  138) = (   0.0333963   0.2892208  -0.1482545), wk =   0.0008889
        k(  139) = (   0.0333963   0.3277836   0.0000000), wk =   0.0008889
        k(  140) = (   0.0333963   0.3277836   0.0296509), wk =   0.0017778
        k(  141) = (   0.0333963   0.3277836   0.0593018), wk =   0.0017778
        k(  142) = (   0.0333963   0.3277836   0.0889527), wk =   0.0017778
        k(  143) = (   0.0333963   0.3277836   0.1186036), wk =   0.0017778
        k(  144) = (   0.0333963   0.3277836  -0.1482545), wk =   0.0008889
        k(  145) = (   0.0333963   0.3663464   0.0000000), wk =   0.0008889
        k(  146) = (   0.0333963   0.3663464   0.0296509), wk =   0.0017778
        k(  147) = (   0.0333963   0.3663464   0.0593018), wk =   0.0017778
        k(  148) = (   0.0333963   0.3663464   0.0889527), wk =   0.0017778
        k(  149) = (   0.0333963   0.3663464   0.1186036), wk =   0.0017778
        k(  150) = (   0.0333963   0.3663464  -0.1482545), wk =   0.0008889
        k(  151) = (   0.0333963   0.4049092   0.0000000), wk =   0.0008889
        k(  152) = (   0.0333963   0.4049092   0.0296509), wk =   0.0017778
        k(  153) = (   0.0333963   0.4049092   0.0593018), wk =   0.0017778
        k(  154) = (   0.0333963   0.4049092   0.0889527), wk =   0.0017778
        k(  155) = (   0.0333963   0.4049092   0.1186036), wk =   0.0017778
        k(  156) = (   0.0333963   0.4049092  -0.1482545), wk =   0.0008889
        k(  157) = (   0.0333963   0.4434720   0.0000000), wk =   0.0008889
        k(  158) = (   0.0333963   0.4434720   0.0296509), wk =   0.0017778
        k(  159) = (   0.0333963   0.4434720   0.0593018), wk =   0.0017778
        k(  160) = (   0.0333963   0.4434720   0.0889527), wk =   0.0017778
        k(  161) = (   0.0333963   0.4434720   0.1186036), wk =   0.0017778
        k(  162) = (   0.0333963   0.4434720  -0.1482545), wk =   0.0008889
        k(  163) = (   0.0333963   0.4820347   0.0000000), wk =   0.0008889
        k(  164) = (   0.0333963   0.4820347   0.0296509), wk =   0.0017778
        k(  165) = (   0.0333963   0.4820347   0.0593018), wk =   0.0017778
        k(  166) = (   0.0333963   0.4820347   0.0889527), wk =   0.0017778
        k(  167) = (   0.0333963   0.4820347   0.1186036), wk =   0.0017778
        k(  168) = (   0.0333963   0.4820347  -0.1482545), wk =   0.0008889
        k(  169) = (   0.0333963   0.5205975   0.0000000), wk =   0.0008889
        k(  170) = (   0.0333963   0.5205975   0.0296509), wk =   0.0017778
        k(  171) = (   0.0333963   0.5205975   0.0593018), wk =   0.0017778
        k(  172) = (   0.0333963   0.5205975   0.0889527), wk =   0.0017778
        k(  173) = (   0.0333963   0.5205975   0.1186036), wk =   0.0017778
        k(  174) = (   0.0333963   0.5205975  -0.1482545), wk =   0.0008889
        k(  175) = (   0.0333963   0.5591603   0.0000000), wk =   0.0008889
        k(  176) = (   0.0333963   0.5591603   0.0296509), wk =   0.0017778
        k(  177) = (   0.0333963   0.5591603   0.0593018), wk =   0.0017778
        k(  178) = (   0.0333963   0.5591603   0.0889527), wk =   0.0017778
        k(  179) = (   0.0333963   0.5591603   0.1186036), wk =   0.0017778
        k(  180) = (   0.0333963   0.5591603  -0.1482545), wk =   0.0008889
        k(  181) = (   0.0667927   0.1156883   0.0000000), wk =   0.0008889
        k(  182) = (   0.0667927   0.1156883   0.0296509), wk =   0.0017778
        k(  183) = (   0.0667927   0.1156883   0.0593018), wk =   0.0017778
        k(  184) = (   0.0667927   0.1156883   0.0889527), wk =   0.0017778
        k(  185) = (   0.0667927   0.1156883   0.1186036), wk =   0.0017778
        k(  186) = (   0.0667927   0.1156883  -0.1482545), wk =   0.0008889
        k(  187) = (   0.0667927   0.1542511   0.0000000), wk =   0.0008889
        k(  188) = (   0.0667927   0.1542511   0.0296509), wk =   0.0017778
        k(  189) = (   0.0667927   0.1542511   0.0593018), wk =   0.0017778
        k(  190) = (   0.0667927   0.1542511   0.0889527), wk =   0.0017778
        k(  191) = (   0.0667927   0.1542511   0.1186036), wk =   0.0017778
        k(  192) = (   0.0667927   0.1542511  -0.1482545), wk =   0.0008889
        k(  193) = (   0.0667927   0.1928139   0.0000000), wk =   0.0008889
        k(  194) = (   0.0667927   0.1928139   0.0296509), wk =   0.0017778
        k(  195) = (   0.0667927   0.1928139   0.0593018), wk =   0.0017778
        k(  196) = (   0.0667927   0.1928139   0.0889527), wk =   0.0017778
        k(  197) = (   0.0667927   0.1928139   0.1186036), wk =   0.0017778
        k(  198) = (   0.0667927   0.1928139  -0.1482545), wk =   0.0008889
        k(  199) = (   0.0667927   0.2313767   0.0000000), wk =   0.0008889
        k(  200) = (   0.0667927   0.2313767   0.0296509), wk =   0.0017778
        k(  201) = (   0.0667927   0.2313767   0.0593018), wk =   0.0017778
        k(  202) = (   0.0667927   0.2313767   0.0889527), wk =   0.0017778
        k(  203) = (   0.0667927   0.2313767   0.1186036), wk =   0.0017778
        k(  204) = (   0.0667927   0.2313767  -0.1482545), wk =   0.0008889
        k(  205) = (   0.0667927   0.2699395   0.0000000), wk =   0.0008889
        k(  206) = (   0.0667927   0.2699395   0.0296509), wk =   0.0017778
        k(  207) = (   0.0667927   0.2699395   0.0593018), wk =   0.0017778
        k(  208) = (   0.0667927   0.2699395   0.0889527), wk =   0.0017778
        k(  209) = (   0.0667927   0.2699395   0.1186036), wk =   0.0017778
        k(  210) = (   0.0667927   0.2699395  -0.1482545), wk =   0.0008889
        k(  211) = (   0.0667927   0.3085022   0.0000000), wk =   0.0008889
        k(  212) = (   0.0667927   0.3085022   0.0296509), wk =   0.0017778
        k(  213) = (   0.0667927   0.3085022   0.0593018), wk =   0.0017778
        k(  214) = (   0.0667927   0.3085022   0.0889527), wk =   0.0017778
        k(  215) = (   0.0667927   0.3085022   0.1186036), wk =   0.0017778
        k(  216) = (   0.0667927   0.3085022  -0.1482545), wk =   0.0008889
        k(  217) = (   0.0667927   0.3470650   0.0000000), wk =   0.0008889
        k(  218) = (   0.0667927   0.3470650   0.0296509), wk =   0.0017778
        k(  219) = (   0.0667927   0.3470650   0.0593018), wk =   0.0017778
        k(  220) = (   0.0667927   0.3470650   0.0889527), wk =   0.0017778
        k(  221) = (   0.0667927   0.3470650   0.1186036), wk =   0.0017778
        k(  222) = (   0.0667927   0.3470650  -0.1482545), wk =   0.0008889
        k(  223) = (   0.0667927   0.3856278   0.0000000), wk =   0.0008889
        k(  224) = (   0.0667927   0.3856278   0.0296509), wk =   0.0017778
        k(  225) = (   0.0667927   0.3856278   0.0593018), wk =   0.0017778
        k(  226) = (   0.0667927   0.3856278   0.0889527), wk =   0.0017778
        k(  227) = (   0.0667927   0.3856278   0.1186036), wk =   0.0017778
        k(  228) = (   0.0667927   0.3856278  -0.1482545), wk =   0.0008889
        k(  229) = (   0.0667927   0.4241906   0.0000000), wk =   0.0008889
        k(  230) = (   0.0667927   0.4241906   0.0296509), wk =   0.0017778
        k(  231) = (   0.0667927   0.4241906   0.0593018), wk =   0.0017778
        k(  232) = (   0.0667927   0.4241906   0.0889527), wk =   0.0017778
        k(  233) = (   0.0667927   0.4241906   0.1186036), wk =   0.0017778
        k(  234) = (   0.0667927   0.4241906  -0.1482545), wk =   0.0008889
        k(  235) = (   0.0667927   0.4627533   0.0000000), wk =   0.0008889
        k(  236) = (   0.0667927   0.4627533   0.0296509), wk =   0.0017778
        k(  237) = (   0.0667927   0.4627533   0.0593018), wk =   0.0017778
        k(  238) = (   0.0667927   0.4627533   0.0889527), wk =   0.0017778
        k(  239) = (   0.0667927   0.4627533   0.1186036), wk =   0.0017778
        k(  240) = (   0.0667927   0.4627533  -0.1482545), wk =   0.0008889
        k(  241) = (   0.0667927   0.5013161   0.0000000), wk =   0.0008889
        k(  242) = (   0.0667927   0.5013161   0.0296509), wk =   0.0017778
        k(  243) = (   0.0667927   0.5013161   0.0593018), wk =   0.0017778
        k(  244) = (   0.0667927   0.5013161   0.0889527), wk =   0.0017778
        k(  245) = (   0.0667927   0.5013161   0.1186036), wk =   0.0017778
        k(  246) = (   0.0667927   0.5013161  -0.1482545), wk =   0.0008889
        k(  247) = (   0.0667927   0.5398789   0.0000000), wk =   0.0008889
        k(  248) = (   0.0667927   0.5398789   0.0296509), wk =   0.0017778
        k(  249) = (   0.0667927   0.5398789   0.0593018), wk =   0.0017778
        k(  250) = (   0.0667927   0.5398789   0.0889527), wk =   0.0017778
        k(  251) = (   0.0667927   0.5398789   0.1186036), wk =   0.0017778
        k(  252) = (   0.0667927   0.5398789  -0.1482545), wk =   0.0008889
        k(  253) = (   0.0667927   0.5784417   0.0000000), wk =   0.0004444
        k(  254) = (   0.0667927   0.5784417   0.0296509), wk =   0.0008889
        k(  255) = (   0.0667927   0.5784417   0.0593018), wk =   0.0008889
        k(  256) = (   0.0667927   0.5784417   0.0889527), wk =   0.0008889
        k(  257) = (   0.0667927   0.5784417   0.1186036), wk =   0.0008889
        k(  258) = (   0.0667927   0.5784417  -0.1482545), wk =   0.0004444
        k(  259) = (   0.1001890   0.1735325   0.0000000), wk =   0.0008889
        k(  260) = (   0.1001890   0.1735325   0.0296509), wk =   0.0017778
        k(  261) = (   0.1001890   0.1735325   0.0593018), wk =   0.0017778
        k(  262) = (   0.1001890   0.1735325   0.0889527), wk =   0.0017778
        k(  263) = (   0.1001890   0.1735325   0.1186036), wk =   0.0017778
        k(  264) = (   0.1001890   0.1735325  -0.1482545), wk =   0.0008889
        k(  265) = (   0.1001890   0.2120953   0.0000000), wk =   0.0008889
        k(  266) = (   0.1001890   0.2120953   0.0296509), wk =   0.0017778
        k(  267) = (   0.1001890   0.2120953   0.0593018), wk =   0.0017778
        k(  268) = (   0.1001890   0.2120953   0.0889527), wk =   0.0017778
        k(  269) = (   0.1001890   0.2120953   0.1186036), wk =   0.0017778
        k(  270) = (   0.1001890   0.2120953  -0.1482545), wk =   0.0008889
        k(  271) = (   0.1001890   0.2506581   0.0000000), wk =   0.0008889
        k(  272) = (   0.1001890   0.2506581   0.0296509), wk =   0.0017778
        k(  273) = (   0.1001890   0.2506581   0.0593018), wk =   0.0017778
        k(  274) = (   0.1001890   0.2506581   0.0889527), wk =   0.0017778
        k(  275) = (   0.1001890   0.2506581   0.1186036), wk =   0.0017778
        k(  276) = (   0.1001890   0.2506581  -0.1482545), wk =   0.0008889
        k(  277) = (   0.1001890   0.2892208   0.0000000), wk =   0.0008889
        k(  278) = (   0.1001890   0.2892208   0.0296509), wk =   0.0017778
        k(  279) = (   0.1001890   0.2892208   0.0593018), wk =   0.0017778
        k(  280) = (   0.1001890   0.2892208   0.0889527), wk =   0.0017778
        k(  281) = (   0.1001890   0.2892208   0.1186036), wk =   0.0017778
        k(  282) = (   0.1001890   0.2892208  -0.1482545), wk =   0.0008889
        k(  283) = (   0.1001890   0.3277836   0.0000000), wk =   0.0008889
        k(  284) = (   0.1001890   0.3277836   0.0296509), wk =   0.0017778
        k(  285) = (   0.1001890   0.3277836   0.0593018), wk =   0.0017778
        k(  286) = (   0.1001890   0.3277836   0.0889527), wk =   0.0017778
        k(  287) = (   0.1001890   0.3277836   0.1186036), wk =   0.0017778
        k(  288) = (   0.1001890   0.3277836  -0.1482545), wk =   0.0008889
        k(  289) = (   0.1001890   0.3663464   0.0000000), wk =   0.0008889
        k(  290) = (   0.1001890   0.3663464   0.0296509), wk =   0.0017778
        k(  291) = (   0.1001890   0.3663464   0.0593018), wk =   0.0017778
        k(  292) = (   0.1001890   0.3663464   0.0889527), wk =   0.0017778
        k(  293) = (   0.1001890   0.3663464   0.1186036), wk =   0.0017778
        k(  294) = (   0.1001890   0.3663464  -0.1482545), wk =   0.0008889
        k(  295) = (   0.1001890   0.4049092   0.0000000), wk =   0.0008889
        k(  296) = (   0.1001890   0.4049092   0.0296509), wk =   0.0017778
        k(  297) = (   0.1001890   0.4049092   0.0593018), wk =   0.0017778
        k(  298) = (   0.1001890   0.4049092   0.0889527), wk =   0.0017778
        k(  299) = (   0.1001890   0.4049092   0.1186036), wk =   0.0017778
        k(  300) = (   0.1001890   0.4049092  -0.1482545), wk =   0.0008889
        k(  301) = (   0.1001890   0.4434720   0.0000000), wk =   0.0008889
        k(  302) = (   0.1001890   0.4434720   0.0296509), wk =   0.0017778
        k(  303) = (   0.1001890   0.4434720   0.0593018), wk =   0.0017778
        k(  304) = (   0.1001890   0.4434720   0.0889527), wk =   0.0017778
        k(  305) = (   0.1001890   0.4434720   0.1186036), wk =   0.0017778
        k(  306) = (   0.1001890   0.4434720  -0.1482545), wk =   0.0008889
        k(  307) = (   0.1001890   0.4820347   0.0000000), wk =   0.0008889
        k(  308) = (   0.1001890   0.4820347   0.0296509), wk =   0.0017778
        k(  309) = (   0.1001890   0.4820347   0.0593018), wk =   0.0017778
        k(  310) = (   0.1001890   0.4820347   0.0889527), wk =   0.0017778
        k(  311) = (   0.1001890   0.4820347   0.1186036), wk =   0.0017778
        k(  312) = (   0.1001890   0.4820347  -0.1482545), wk =   0.0008889
        k(  313) = (   0.1001890   0.5205975   0.0000000), wk =   0.0008889
        k(  314) = (   0.1001890   0.5205975   0.0296509), wk =   0.0017778
        k(  315) = (   0.1001890   0.5205975   0.0593018), wk =   0.0017778
        k(  316) = (   0.1001890   0.5205975   0.0889527), wk =   0.0017778
        k(  317) = (   0.1001890   0.5205975   0.1186036), wk =   0.0017778
        k(  318) = (   0.1001890   0.5205975  -0.1482545), wk =   0.0008889
        k(  319) = (   0.1001890   0.5591603   0.0000000), wk =   0.0008889
        k(  320) = (   0.1001890   0.5591603   0.0296509), wk =   0.0017778
        k(  321) = (   0.1001890   0.5591603   0.0593018), wk =   0.0017778
        k(  322) = (   0.1001890   0.5591603   0.0889527), wk =   0.0017778
        k(  323) = (   0.1001890   0.5591603   0.1186036), wk =   0.0017778
        k(  324) = (   0.1001890   0.5591603  -0.1482545), wk =   0.0008889
        k(  325) = (   0.1335854   0.2313767   0.0000000), wk =   0.0008889
        k(  326) = (   0.1335854   0.2313767   0.0296509), wk =   0.0017778
        k(  327) = (   0.1335854   0.2313767   0.0593018), wk =   0.0017778
        k(  328) = (   0.1335854   0.2313767   0.0889527), wk =   0.0017778
        k(  329) = (   0.1335854   0.2313767   0.1186036), wk =   0.0017778
        k(  330) = (   0.1335854   0.2313767  -0.1482545), wk =   0.0008889
        k(  331) = (   0.1335854   0.2699395   0.0000000), wk =   0.0008889
        k(  332) = (   0.1335854   0.2699395   0.0296509), wk =   0.0017778
        k(  333) = (   0.1335854   0.2699395   0.0593018), wk =   0.0017778
        k(  334) = (   0.1335854   0.2699395   0.0889527), wk =   0.0017778
        k(  335) = (   0.1335854   0.2699395   0.1186036), wk =   0.0017778
        k(  336) = (   0.1335854   0.2699395  -0.1482545), wk =   0.0008889
        k(  337) = (   0.1335854   0.3085022   0.0000000), wk =   0.0008889
        k(  338) = (   0.1335854   0.3085022   0.0296509), wk =   0.0017778
        k(  339) = (   0.1335854   0.3085022   0.0593018), wk =   0.0017778
        k(  340) = (   0.1335854   0.3085022   0.0889527), wk =   0.0017778
        k(  341) = (   0.1335854   0.3085022   0.1186036), wk =   0.0017778
        k(  342) = (   0.1335854   0.3085022  -0.1482545), wk =   0.0008889
        k(  343) = (   0.1335854   0.3470650   0.0000000), wk =   0.0008889
        k(  344) = (   0.1335854   0.3470650   0.0296509), wk =   0.0017778
        k(  345) = (   0.1335854   0.3470650   0.0593018), wk =   0.0017778
        k(  346) = (   0.1335854   0.3470650   0.0889527), wk =   0.0017778
        k(  347) = (   0.1335854   0.3470650   0.1186036), wk =   0.0017778
        k(  348) = (   0.1335854   0.3470650  -0.1482545), wk =   0.0008889
        k(  349) = (   0.1335854   0.3856278   0.0000000), wk =   0.0008889
        k(  350) = (   0.1335854   0.3856278   0.0296509), wk =   0.0017778
        k(  351) = (   0.1335854   0.3856278   0.0593018), wk =   0.0017778
        k(  352) = (   0.1335854   0.3856278   0.0889527), wk =   0.0017778
        k(  353) = (   0.1335854   0.3856278   0.1186036), wk =   0.0017778
        k(  354) = (   0.1335854   0.3856278  -0.1482545), wk =   0.0008889
        k(  355) = (   0.1335854   0.4241906   0.0000000), wk =   0.0008889
        k(  356) = (   0.1335854   0.4241906   0.0296509), wk =   0.0017778
        k(  357) = (   0.1335854   0.4241906   0.0593018), wk =   0.0017778
        k(  358) = (   0.1335854   0.4241906   0.0889527), wk =   0.0017778
        k(  359) = (   0.1335854   0.4241906   0.1186036), wk =   0.0017778
        k(  360) = (   0.1335854   0.4241906  -0.1482545), wk =   0.0008889
        k(  361) = (   0.1335854   0.4627533   0.0000000), wk =   0.0008889
        k(  362) = (   0.1335854   0.4627533   0.0296509), wk =   0.0017778
        k(  363) = (   0.1335854   0.4627533   0.0593018), wk =   0.0017778
        k(  364) = (   0.1335854   0.4627533   0.0889527), wk =   0.0017778
        k(  365) = (   0.1335854   0.4627533   0.1186036), wk =   0.0017778
        k(  366) = (   0.1335854   0.4627533  -0.1482545), wk =   0.0008889
        k(  367) = (   0.1335854   0.5013161   0.0000000), wk =   0.0008889
        k(  368) = (   0.1335854   0.5013161   0.0296509), wk =   0.0017778
        k(  369) = (   0.1335854   0.5013161   0.0593018), wk =   0.0017778
        k(  370) = (   0.1335854   0.5013161   0.0889527), wk =   0.0017778
        k(  371) = (   0.1335854   0.5013161   0.1186036), wk =   0.0017778
        k(  372) = (   0.1335854   0.5013161  -0.1482545), wk =   0.0008889
        k(  373) = (   0.1335854   0.5398789   0.0000000), wk =   0.0008889
        k(  374) = (   0.1335854   0.5398789   0.0296509), wk =   0.0017778
        k(  375) = (   0.1335854   0.5398789   0.0593018), wk =   0.0017778
        k(  376) = (   0.1335854   0.5398789   0.0889527), wk =   0.0017778
        k(  377) = (   0.1335854   0.5398789   0.1186036), wk =   0.0017778
        k(  378) = (   0.1335854   0.5398789  -0.1482545), wk =   0.0008889
        k(  379) = (   0.1335854   0.5784417   0.0000000), wk =   0.0004444
        k(  380) = (   0.1335854   0.5784417   0.0296509), wk =   0.0008889
        k(  381) = (   0.1335854   0.5784417   0.0593018), wk =   0.0008889
        k(  382) = (   0.1335854   0.5784417   0.0889527), wk =   0.0008889
        k(  383) = (   0.1335854   0.5784417   0.1186036), wk =   0.0008889
        k(  384) = (   0.1335854   0.5784417  -0.1482545), wk =   0.0004444
        k(  385) = (   0.1669817   0.2892208   0.0000000), wk =   0.0008889
        k(  386) = (   0.1669817   0.2892208   0.0296509), wk =   0.0017778
        k(  387) = (   0.1669817   0.2892208   0.0593018), wk =   0.0017778
        k(  388) = (   0.1669817   0.2892208   0.0889527), wk =   0.0017778
        k(  389) = (   0.1669817   0.2892208   0.1186036), wk =   0.0017778
        k(  390) = (   0.1669817   0.2892208  -0.1482545), wk =   0.0008889
        k(  391) = (   0.1669817   0.3277836   0.0000000), wk =   0.0008889
        k(  392) = (   0.1669817   0.3277836   0.0296509), wk =   0.0017778
        k(  393) = (   0.1669817   0.3277836   0.0593018), wk =   0.0017778
        k(  394) = (   0.1669817   0.3277836   0.0889527), wk =   0.0017778
        k(  395) = (   0.1669817   0.3277836   0.1186036), wk =   0.0017778
        k(  396) = (   0.1669817   0.3277836  -0.1482545), wk =   0.0008889
        k(  397) = (   0.1669817   0.3663464   0.0000000), wk =   0.0008889
        k(  398) = (   0.1669817   0.3663464   0.0296509), wk =   0.0017778
        k(  399) = (   0.1669817   0.3663464   0.0593018), wk =   0.0017778
        k(  400) = (   0.1669817   0.3663464   0.0889527), wk =   0.0017778
        k(  401) = (   0.1669817   0.3663464   0.1186036), wk =   0.0017778
        k(  402) = (   0.1669817   0.3663464  -0.1482545), wk =   0.0008889
        k(  403) = (   0.1669817   0.4049092   0.0000000), wk =   0.0008889
        k(  404) = (   0.1669817   0.4049092   0.0296509), wk =   0.0017778
        k(  405) = (   0.1669817   0.4049092   0.0593018), wk =   0.0017778
        k(  406) = (   0.1669817   0.4049092   0.0889527), wk =   0.0017778
        k(  407) = (   0.1669817   0.4049092   0.1186036), wk =   0.0017778
        k(  408) = (   0.1669817   0.4049092  -0.1482545), wk =   0.0008889
        k(  409) = (   0.1669817   0.4434720   0.0000000), wk =   0.0008889
        k(  410) = (   0.1669817   0.4434720   0.0296509), wk =   0.0017778
        k(  411) = (   0.1669817   0.4434720   0.0593018), wk =   0.0017778
        k(  412) = (   0.1669817   0.4434720   0.0889527), wk =   0.0017778
        k(  413) = (   0.1669817   0.4434720   0.1186036), wk =   0.0017778
        k(  414) = (   0.1669817   0.4434720  -0.1482545), wk =   0.0008889
        k(  415) = (   0.1669817   0.4820347   0.0000000), wk =   0.0008889
        k(  416) = (   0.1669817   0.4820347   0.0296509), wk =   0.0017778
        k(  417) = (   0.1669817   0.4820347   0.0593018), wk =   0.0017778
        k(  418) = (   0.1669817   0.4820347   0.0889527), wk =   0.0017778
        k(  419) = (   0.1669817   0.4820347   0.1186036), wk =   0.0017778
        k(  420) = (   0.1669817   0.4820347  -0.1482545), wk =   0.0008889
        k(  421) = (   0.1669817   0.5205975   0.0000000), wk =   0.0008889
        k(  422) = (   0.1669817   0.5205975   0.0296509), wk =   0.0017778
        k(  423) = (   0.1669817   0.5205975   0.0593018), wk =   0.0017778
        k(  424) = (   0.1669817   0.5205975   0.0889527), wk =   0.0017778
        k(  425) = (   0.1669817   0.5205975   0.1186036), wk =   0.0017778
        k(  426) = (   0.1669817   0.5205975  -0.1482545), wk =   0.0008889
        k(  427) = (   0.1669817   0.5591603   0.0000000), wk =   0.0008889
        k(  428) = (   0.1669817   0.5591603   0.0296509), wk =   0.0017778
        k(  429) = (   0.1669817   0.5591603   0.0593018), wk =   0.0017778
        k(  430) = (   0.1669817   0.5591603   0.0889527), wk =   0.0017778
        k(  431) = (   0.1669817   0.5591603   0.1186036), wk =   0.0017778
        k(  432) = (   0.1669817   0.5591603  -0.1482545), wk =   0.0008889
        k(  433) = (   0.2003781   0.3470650   0.0000000), wk =   0.0008889
        k(  434) = (   0.2003781   0.3470650   0.0296509), wk =   0.0017778
        k(  435) = (   0.2003781   0.3470650   0.0593018), wk =   0.0017778
        k(  436) = (   0.2003781   0.3470650   0.0889527), wk =   0.0017778
        k(  437) = (   0.2003781   0.3470650   0.1186036), wk =   0.0017778
        k(  438) = (   0.2003781   0.3470650  -0.1482545), wk =   0.0008889
        k(  439) = (   0.2003781   0.3856278   0.0000000), wk =   0.0008889
        k(  440) = (   0.2003781   0.3856278   0.0296509), wk =   0.0017778
        k(  441) = (   0.2003781   0.3856278   0.0593018), wk =   0.0017778
        k(  442) = (   0.2003781   0.3856278   0.0889527), wk =   0.0017778
        k(  443) = (   0.2003781   0.3856278   0.1186036), wk =   0.0017778
        k(  444) = (   0.2003781   0.3856278  -0.1482545), wk =   0.0008889
        k(  445) = (   0.2003781   0.4241906   0.0000000), wk =   0.0008889
        k(  446) = (   0.2003781   0.4241906   0.0296509), wk =   0.0017778
        k(  447) = (   0.2003781   0.4241906   0.0593018), wk =   0.0017778
        k(  448) = (   0.2003781   0.4241906   0.0889527), wk =   0.0017778
        k(  449) = (   0.2003781   0.4241906   0.1186036), wk =   0.0017778
        k(  450) = (   0.2003781   0.4241906  -0.1482545), wk =   0.0008889
        k(  451) = (   0.2003781   0.4627533   0.0000000), wk =   0.0008889
        k(  452) = (   0.2003781   0.4627533   0.0296509), wk =   0.0017778
        k(  453) = (   0.2003781   0.4627533   0.0593018), wk =   0.0017778
        k(  454) = (   0.2003781   0.4627533   0.0889527), wk =   0.0017778
        k(  455) = (   0.2003781   0.4627533   0.1186036), wk =   0.0017778
        k(  456) = (   0.2003781   0.4627533  -0.1482545), wk =   0.0008889
        k(  457) = (   0.2003781   0.5013161   0.0000000), wk =   0.0008889
        k(  458) = (   0.2003781   0.5013161   0.0296509), wk =   0.0017778
        k(  459) = (   0.2003781   0.5013161   0.0593018), wk =   0.0017778
        k(  460) = (   0.2003781   0.5013161   0.0889527), wk =   0.0017778
        k(  461) = (   0.2003781   0.5013161   0.1186036), wk =   0.0017778
        k(  462) = (   0.2003781   0.5013161  -0.1482545), wk =   0.0008889
        k(  463) = (   0.2003781   0.5398789   0.0000000), wk =   0.0008889
        k(  464) = (   0.2003781   0.5398789   0.0296509), wk =   0.0017778
        k(  465) = (   0.2003781   0.5398789   0.0593018), wk =   0.0017778
        k(  466) = (   0.2003781   0.5398789   0.0889527), wk =   0.0017778
        k(  467) = (   0.2003781   0.5398789   0.1186036), wk =   0.0017778
        k(  468) = (   0.2003781   0.5398789  -0.1482545), wk =   0.0008889
        k(  469) = (   0.2003781   0.5784417   0.0000000), wk =   0.0004444
        k(  470) = (   0.2003781   0.5784417   0.0296509), wk =   0.0008889
        k(  471) = (   0.2003781   0.5784417   0.0593018), wk =   0.0008889
        k(  472) = (   0.2003781   0.5784417   0.0889527), wk =   0.0008889
        k(  473) = (   0.2003781   0.5784417   0.1186036), wk =   0.0008889
        k(  474) = (   0.2003781   0.5784417  -0.1482545), wk =   0.0004444
        k(  475) = (   0.2337744   0.4049092   0.0000000), wk =   0.0008889
        k(  476) = (   0.2337744   0.4049092   0.0296509), wk =   0.0017778
        k(  477) = (   0.2337744   0.4049092   0.0593018), wk =   0.0017778
        k(  478) = (   0.2337744   0.4049092   0.0889527), wk =   0.0017778
        k(  479) = (   0.2337744   0.4049092   0.1186036), wk =   0.0017778
        k(  480) = (   0.2337744   0.4049092  -0.1482545), wk =   0.0008889
        k(  481) = (   0.2337744   0.4434720   0.0000000), wk =   0.0008889
        k(  482) = (   0.2337744   0.4434720   0.0296509), wk =   0.0017778
        k(  483) = (   0.2337744   0.4434720   0.0593018), wk =   0.0017778
        k(  484) = (   0.2337744   0.4434720   0.0889527), wk =   0.0017778
        k(  485) = (   0.2337744   0.4434720   0.1186036), wk =   0.0017778
        k(  486) = (   0.2337744   0.4434720  -0.1482545), wk =   0.0008889
        k(  487) = (   0.2337744   0.4820347   0.0000000), wk =   0.0008889
        k(  488) = (   0.2337744   0.4820347   0.0296509), wk =   0.0017778
        k(  489) = (   0.2337744   0.4820347   0.0593018), wk =   0.0017778
        k(  490) = (   0.2337744   0.4820347   0.0889527), wk =   0.0017778
        k(  491) = (   0.2337744   0.4820347   0.1186036), wk =   0.0017778
        k(  492) = (   0.2337744   0.4820347  -0.1482545), wk =   0.0008889
        k(  493) = (   0.2337744   0.5205975   0.0000000), wk =   0.0008889
        k(  494) = (   0.2337744   0.5205975   0.0296509), wk =   0.0017778
        k(  495) = (   0.2337744   0.5205975   0.0593018), wk =   0.0017778
        k(  496) = (   0.2337744   0.5205975   0.0889527), wk =   0.0017778
        k(  497) = (   0.2337744   0.5205975   0.1186036), wk =   0.0017778
        k(  498) = (   0.2337744   0.5205975  -0.1482545), wk =   0.0008889
        k(  499) = (   0.2337744   0.5591603   0.0000000), wk =   0.0008889
        k(  500) = (   0.2337744   0.5591603   0.0296509), wk =   0.0017778
        k(  501) = (   0.2337744   0.5591603   0.0593018), wk =   0.0017778
        k(  502) = (   0.2337744   0.5591603   0.0889527), wk =   0.0017778
        k(  503) = (   0.2337744   0.5591603   0.1186036), wk =   0.0017778
        k(  504) = (   0.2337744   0.5591603  -0.1482545), wk =   0.0008889
        k(  505) = (   0.2671708   0.4627533   0.0000000), wk =   0.0008889
        k(  506) = (   0.2671708   0.4627533   0.0296509), wk =   0.0017778
        k(  507) = (   0.2671708   0.4627533   0.0593018), wk =   0.0017778
        k(  508) = (   0.2671708   0.4627533   0.0889527), wk =   0.0017778
        k(  509) = (   0.2671708   0.4627533   0.1186036), wk =   0.0017778
        k(  510) = (   0.2671708   0.4627533  -0.1482545), wk =   0.0008889
        k(  511) = (   0.2671708   0.5013161   0.0000000), wk =   0.0008889
        k(  512) = (   0.2671708   0.5013161   0.0296509), wk =   0.0017778
        k(  513) = (   0.2671708   0.5013161   0.0593018), wk =   0.0017778
        k(  514) = (   0.2671708   0.5013161   0.0889527), wk =   0.0017778
        k(  515) = (   0.2671708   0.5013161   0.1186036), wk =   0.0017778
        k(  516) = (   0.2671708   0.5013161  -0.1482545), wk =   0.0008889
        k(  517) = (   0.2671708   0.5398789   0.0000000), wk =   0.0008889
        k(  518) = (   0.2671708   0.5398789   0.0296509), wk =   0.0017778
        k(  519) = (   0.2671708   0.5398789   0.0593018), wk =   0.0017778
        k(  520) = (   0.2671708   0.5398789   0.0889527), wk =   0.0017778
        k(  521) = (   0.2671708   0.5398789   0.1186036), wk =   0.0017778
        k(  522) = (   0.2671708   0.5398789  -0.1482545), wk =   0.0008889
        k(  523) = (   0.2671708   0.5784417   0.0000000), wk =   0.0004444
        k(  524) = (   0.2671708   0.5784417   0.0296509), wk =   0.0008889
        k(  525) = (   0.2671708   0.5784417   0.0593018), wk =   0.0008889
        k(  526) = (   0.2671708   0.5784417   0.0889527), wk =   0.0008889
        k(  527) = (   0.2671708   0.5784417   0.1186036), wk =   0.0008889
        k(  528) = (   0.2671708   0.5784417  -0.1482545), wk =   0.0004444
        k(  529) = (   0.3005671   0.5205975   0.0000000), wk =   0.0008889
        k(  530) = (   0.3005671   0.5205975   0.0296509), wk =   0.0017778
        k(  531) = (   0.3005671   0.5205975   0.0593018), wk =   0.0017778
        k(  532) = (   0.3005671   0.5205975   0.0889527), wk =   0.0017778
        k(  533) = (   0.3005671   0.5205975   0.1186036), wk =   0.0017778
        k(  534) = (   0.3005671   0.5205975  -0.1482545), wk =   0.0008889
        k(  535) = (   0.3005671   0.5591603   0.0000000), wk =   0.0008889
        k(  536) = (   0.3005671   0.5591603   0.0296509), wk =   0.0017778
        k(  537) = (   0.3005671   0.5591603   0.0593018), wk =   0.0017778
        k(  538) = (   0.3005671   0.5591603   0.0889527), wk =   0.0017778
        k(  539) = (   0.3005671   0.5591603   0.1186036), wk =   0.0017778
        k(  540) = (   0.3005671   0.5591603  -0.1482545), wk =   0.0008889
        k(  541) = (   0.3339635   0.5784417   0.0000000), wk =   0.0004444
        k(  542) = (   0.3339635   0.5784417   0.0296509), wk =   0.0008889
        k(  543) = (   0.3339635   0.5784417   0.0593018), wk =   0.0008889
        k(  544) = (   0.3339635   0.5784417   0.0889527), wk =   0.0008889
        k(  545) = (   0.3339635   0.5784417   0.1186036), wk =   0.0008889
        k(  546) = (   0.3339635   0.5784417  -0.1482545), wk =   0.0004444
        k(  547) = (  -0.0333963  -0.0192814   0.0000000), wk =   0.0008889
        k(  548) = (  -0.0333963  -0.0192814  -0.0296509), wk =   0.0017778
        k(  549) = (  -0.0333963  -0.0192814  -0.0593018), wk =   0.0017778
        k(  550) = (  -0.0333963  -0.0192814  -0.0889527), wk =   0.0017778
        k(  551) = (  -0.0333963  -0.0192814  -0.1186036), wk =   0.0017778
        k(  552) = (  -0.0333963  -0.0192814   0.1482545), wk =   0.0008889
        k(  553) = (  -0.0667927  -0.0385628   0.0000000), wk =   0.0008889
        k(  554) = (  -0.0667927  -0.0385628  -0.0296509), wk =   0.0017778
        k(  555) = (  -0.0667927  -0.0385628  -0.0593018), wk =   0.0017778
        k(  556) = (  -0.0667927  -0.0385628  -0.0889527), wk =   0.0017778
        k(  557) = (  -0.0667927  -0.0385628  -0.1186036), wk =   0.0017778
        k(  558) = (  -0.0667927  -0.0385628   0.1482545), wk =   0.0008889
        k(  559) = (  -0.1001890  -0.0578442   0.0000000), wk =   0.0008889
        k(  560) = (  -0.1001890  -0.0578442  -0.0296509), wk =   0.0017778
        k(  561) = (  -0.1001890  -0.0578442  -0.0593018), wk =   0.0017778
        k(  562) = (  -0.1001890  -0.0578442  -0.0889527), wk =   0.0017778
        k(  563) = (  -0.1001890  -0.0578442  -0.1186036), wk =   0.0017778
        k(  564) = (  -0.1001890  -0.0578442   0.1482545), wk =   0.0008889
        k(  565) = (  -0.1335854  -0.0771256   0.0000000), wk =   0.0008889
        k(  566) = (  -0.1335854  -0.0771256  -0.0296509), wk =   0.0017778
        k(  567) = (  -0.1335854  -0.0771256  -0.0593018), wk =   0.0017778
        k(  568) = (  -0.1335854  -0.0771256  -0.0889527), wk =   0.0017778
        k(  569) = (  -0.1335854  -0.0771256  -0.1186036), wk =   0.0017778
        k(  570) = (  -0.1335854  -0.0771256   0.1482545), wk =   0.0008889
        k(  571) = (  -0.1669817  -0.0964069   0.0000000), wk =   0.0008889
        k(  572) = (  -0.1669817  -0.0964069  -0.0296509), wk =   0.0017778
        k(  573) = (  -0.1669817  -0.0964069  -0.0593018), wk =   0.0017778
        k(  574) = (  -0.1669817  -0.0964069  -0.0889527), wk =   0.0017778
        k(  575) = (  -0.1669817  -0.0964069  -0.1186036), wk =   0.0017778
        k(  576) = (  -0.1669817  -0.0964069   0.1482545), wk =   0.0008889
        k(  577) = (  -0.2003781  -0.1156883   0.0000000), wk =   0.0008889
        k(  578) = (  -0.2003781  -0.1156883  -0.0296509), wk =   0.0017778
        k(  579) = (  -0.2003781  -0.1156883  -0.0593018), wk =   0.0017778
        k(  580) = (  -0.2003781  -0.1156883  -0.0889527), wk =   0.0017778
        k(  581) = (  -0.2003781  -0.1156883  -0.1186036), wk =   0.0017778
        k(  582) = (  -0.2003781  -0.1156883   0.1482545), wk =   0.0008889
        k(  583) = (  -0.2337744  -0.1349697   0.0000000), wk =   0.0008889
        k(  584) = (  -0.2337744  -0.1349697  -0.0296509), wk =   0.0017778
        k(  585) = (  -0.2337744  -0.1349697  -0.0593018), wk =   0.0017778
        k(  586) = (  -0.2337744  -0.1349697  -0.0889527), wk =   0.0017778
        k(  587) = (  -0.2337744  -0.1349697  -0.1186036), wk =   0.0017778
        k(  588) = (  -0.2337744  -0.1349697   0.1482545), wk =   0.0008889
        k(  589) = (  -0.2671708  -0.1542511   0.0000000), wk =   0.0008889
        k(  590) = (  -0.2671708  -0.1542511  -0.0296509), wk =   0.0017778
        k(  591) = (  -0.2671708  -0.1542511  -0.0593018), wk =   0.0017778
        k(  592) = (  -0.2671708  -0.1542511  -0.0889527), wk =   0.0017778
        k(  593) = (  -0.2671708  -0.1542511  -0.1186036), wk =   0.0017778
        k(  594) = (  -0.2671708  -0.1542511   0.1482545), wk =   0.0008889
        k(  595) = (  -0.3005671  -0.1735325   0.0000000), wk =   0.0008889
        k(  596) = (  -0.3005671  -0.1735325  -0.0296509), wk =   0.0017778
        k(  597) = (  -0.3005671  -0.1735325  -0.0593018), wk =   0.0017778
        k(  598) = (  -0.3005671  -0.1735325  -0.0889527), wk =   0.0017778
        k(  599) = (  -0.3005671  -0.1735325  -0.1186036), wk =   0.0017778
        k(  600) = (  -0.3005671  -0.1735325   0.1482545), wk =   0.0008889
        k(  601) = (  -0.3339635  -0.1928139   0.0000000), wk =   0.0008889
        k(  602) = (  -0.3339635  -0.1928139  -0.0296509), wk =   0.0017778
        k(  603) = (  -0.3339635  -0.1928139  -0.0593018), wk =   0.0017778
        k(  604) = (  -0.3339635  -0.1928139  -0.0889527), wk =   0.0017778
        k(  605) = (  -0.3339635  -0.1928139  -0.1186036), wk =   0.0017778
        k(  606) = (  -0.3339635  -0.1928139   0.1482545), wk =   0.0008889
        k(  607) = (  -0.3673598  -0.2120953   0.0000000), wk =   0.0008889
        k(  608) = (  -0.3673598  -0.2120953  -0.0296509), wk =   0.0017778
        k(  609) = (  -0.3673598  -0.2120953  -0.0593018), wk =   0.0017778
        k(  610) = (  -0.3673598  -0.2120953  -0.0889527), wk =   0.0017778
        k(  611) = (  -0.3673598  -0.2120953  -0.1186036), wk =   0.0017778
        k(  612) = (  -0.3673598  -0.2120953   0.1482545), wk =   0.0008889
        k(  613) = (  -0.4007562  -0.2313767   0.0000000), wk =   0.0008889
        k(  614) = (  -0.4007562  -0.2313767  -0.0296509), wk =   0.0017778
        k(  615) = (  -0.4007562  -0.2313767  -0.0593018), wk =   0.0017778
        k(  616) = (  -0.4007562  -0.2313767  -0.0889527), wk =   0.0017778
        k(  617) = (  -0.4007562  -0.2313767  -0.1186036), wk =   0.0017778
        k(  618) = (  -0.4007562  -0.2313767   0.1482545), wk =   0.0008889
        k(  619) = (  -0.4341525  -0.2506581   0.0000000), wk =   0.0008889
        k(  620) = (  -0.4341525  -0.2506581  -0.0296509), wk =   0.0017778
        k(  621) = (  -0.4341525  -0.2506581  -0.0593018), wk =   0.0017778
        k(  622) = (  -0.4341525  -0.2506581  -0.0889527), wk =   0.0017778
        k(  623) = (  -0.4341525  -0.2506581  -0.1186036), wk =   0.0017778
        k(  624) = (  -0.4341525  -0.2506581   0.1482545), wk =   0.0008889
        k(  625) = (  -0.4675488  -0.2699395   0.0000000), wk =   0.0008889
        k(  626) = (  -0.4675488  -0.2699395  -0.0296509), wk =   0.0017778
        k(  627) = (  -0.4675488  -0.2699395  -0.0593018), wk =   0.0017778
        k(  628) = (  -0.4675488  -0.2699395  -0.0889527), wk =   0.0017778
        k(  629) = (  -0.4675488  -0.2699395  -0.1186036), wk =   0.0017778
        k(  630) = (  -0.4675488  -0.2699395   0.1482545), wk =   0.0008889
        k(  631) = (   0.5009452   0.2892208   0.0000000), wk =   0.0004444
        k(  632) = (   0.5009452   0.2892208  -0.0296509), wk =   0.0008889
        k(  633) = (   0.5009452   0.2892208  -0.0593018), wk =   0.0008889
        k(  634) = (   0.5009452   0.2892208  -0.0889527), wk =   0.0008889
        k(  635) = (   0.5009452   0.2892208  -0.1186036), wk =   0.0008889
        k(  636) = (   0.5009452   0.2892208   0.1482545), wk =   0.0004444
        k(  637) = (   0.0667927   0.0000000   0.0000000), wk =   0.0004444
        k(  638) = (   0.0667927   0.0000000  -0.0296509), wk =   0.0008889
        k(  639) = (   0.0667927   0.0000000  -0.0593018), wk =   0.0008889
        k(  640) = (   0.0667927   0.0000000  -0.0889527), wk =   0.0008889
        k(  641) = (   0.0667927   0.0000000  -0.1186036), wk =   0.0008889
        k(  642) = (   0.0667927   0.0000000   0.1482545), wk =   0.0004444
        k(  643) = (  -0.0667927  -0.0771256   0.0000000), wk =   0.0008889
        k(  644) = (   0.1001890  -0.0192814   0.0000000), wk =   0.0008889
        k(  645) = (  -0.0667927  -0.0771256  -0.0296509), wk =   0.0017778
        k(  646) = (   0.1001890  -0.0192814  -0.0296509), wk =   0.0017778
        k(  647) = (  -0.0667927  -0.0771256  -0.0593018), wk =   0.0017778
        k(  648) = (   0.1001890  -0.0192814  -0.0593018), wk =   0.0017778
        k(  649) = (  -0.0667927  -0.0771256  -0.0889527), wk =   0.0017778
        k(  650) = (   0.1001890  -0.0192814  -0.0889527), wk =   0.0017778
        k(  651) = (  -0.0667927  -0.0771256  -0.1186036), wk =   0.0017778
        k(  652) = (   0.1001890  -0.0192814  -0.1186036), wk =   0.0017778
        k(  653) = (  -0.0667927  -0.0771256   0.1482545), wk =   0.0008889
        k(  654) = (   0.1001890  -0.0192814   0.1482545), wk =   0.0008889
        k(  655) = (  -0.1001890  -0.0964069   0.0000000), wk =   0.0008889
        k(  656) = (   0.1335854  -0.0385628   0.0000000), wk =   0.0008889
        k(  657) = (  -0.1001890  -0.0964069  -0.0296509), wk =   0.0017778
        k(  658) = (   0.1335854  -0.0385628  -0.0296509), wk =   0.0017778
        k(  659) = (  -0.1001890  -0.0964069  -0.0593018), wk =   0.0017778
        k(  660) = (   0.1335854  -0.0385628  -0.0593018), wk =   0.0017778
        k(  661) = (  -0.1001890  -0.0964069  -0.0889527), wk =   0.0017778
        k(  662) = (   0.1335854  -0.0385628  -0.0889527), wk =   0.0017778
        k(  663) = (  -0.1001890  -0.0964069  -0.1186036), wk =   0.0017778
        k(  664) = (   0.1335854  -0.0385628  -0.1186036), wk =   0.0017778
        k(  665) = (  -0.1001890  -0.0964069   0.1482545), wk =   0.0008889
        k(  666) = (   0.1335854  -0.0385628   0.1482545), wk =   0.0008889
        k(  667) = (  -0.1335854  -0.1156883   0.0000000), wk =   0.0008889
        k(  668) = (   0.1669817  -0.0578442   0.0000000), wk =   0.0008889
        k(  669) = (  -0.1335854  -0.1156883  -0.0296509), wk =   0.0017778
        k(  670) = (   0.1669817  -0.0578442  -0.0296509), wk =   0.0017778
        k(  671) = (  -0.1335854  -0.1156883  -0.0593018), wk =   0.0017778
        k(  672) = (   0.1669817  -0.0578442  -0.0593018), wk =   0.0017778
        k(  673) = (  -0.1335854  -0.1156883  -0.0889527), wk =   0.0017778
        k(  674) = (   0.1669817  -0.0578442  -0.0889527), wk =   0.0017778
        k(  675) = (  -0.1335854  -0.1156883  -0.1186036), wk =   0.0017778
        k(  676) = (   0.1669817  -0.0578442  -0.1186036), wk =   0.0017778
        k(  677) = (  -0.1335854  -0.1156883   0.1482545), wk =   0.0008889
        k(  678) = (   0.1669817  -0.0578442   0.1482545), wk =   0.0008889
        k(  679) = (  -0.1669817  -0.1349697   0.0000000), wk =   0.0008889
        k(  680) = (   0.2003781  -0.0771256   0.0000000), wk =   0.0008889
        k(  681) = (  -0.1669817  -0.1349697  -0.0296509), wk =   0.0017778
        k(  682) = (   0.2003781  -0.0771256  -0.0296509), wk =   0.0017778
        k(  683) = (  -0.1669817  -0.1349697  -0.0593018), wk =   0.0017778
        k(  684) = (   0.2003781  -0.0771256  -0.0593018), wk =   0.0017778
        k(  685) = (  -0.1669817  -0.1349697  -0.0889527), wk =   0.0017778
        k(  686) = (   0.2003781  -0.0771256  -0.0889527), wk =   0.0017778
        k(  687) = (  -0.1669817  -0.1349697  -0.1186036), wk =   0.0017778
        k(  688) = (   0.2003781  -0.0771256  -0.1186036), wk =   0.0017778
        k(  689) = (  -0.1669817  -0.1349697   0.1482545), wk =   0.0008889
        k(  690) = (   0.2003781  -0.0771256   0.1482545), wk =   0.0008889
        k(  691) = (  -0.2003781  -0.1542511   0.0000000), wk =   0.0008889
        k(  692) = (   0.2337744  -0.0964069   0.0000000), wk =   0.0008889
        k(  693) = (  -0.2003781  -0.1542511  -0.0296509), wk =   0.0017778
        k(  694) = (   0.2337744  -0.0964069  -0.0296509), wk =   0.0017778
        k(  695) = (  -0.2003781  -0.1542511  -0.0593018), wk =   0.0017778
        k(  696) = (   0.2337744  -0.0964069  -0.0593018), wk =   0.0017778
        k(  697) = (  -0.2003781  -0.1542511  -0.0889527), wk =   0.0017778
        k(  698) = (   0.2337744  -0.0964069  -0.0889527), wk =   0.0017778
        k(  699) = (  -0.2003781  -0.1542511  -0.1186036), wk =   0.0017778
        k(  700) = (   0.2337744  -0.0964069  -0.1186036), wk =   0.0017778
        k(  701) = (  -0.2003781  -0.1542511   0.1482545), wk =   0.0008889
        k(  702) = (   0.2337744  -0.0964069   0.1482545), wk =   0.0008889
        k(  703) = (  -0.2337744  -0.1735325   0.0000000), wk =   0.0008889
        k(  704) = (   0.2671708  -0.1156883   0.0000000), wk =   0.0008889
        k(  705) = (  -0.2337744  -0.1735325  -0.0296509), wk =   0.0017778
        k(  706) = (   0.2671708  -0.1156883  -0.0296509), wk =   0.0017778
        k(  707) = (  -0.2337744  -0.1735325  -0.0593018), wk =   0.0017778
        k(  708) = (   0.2671708  -0.1156883  -0.0593018), wk =   0.0017778
        k(  709) = (  -0.2337744  -0.1735325  -0.0889527), wk =   0.0017778
        k(  710) = (   0.2671708  -0.1156883  -0.0889527), wk =   0.0017778
        k(  711) = (  -0.2337744  -0.1735325  -0.1186036), wk =   0.0017778
        k(  712) = (   0.2671708  -0.1156883  -0.1186036), wk =   0.0017778
        k(  713) = (  -0.2337744  -0.1735325   0.1482545), wk =   0.0008889
        k(  714) = (   0.2671708  -0.1156883   0.1482545), wk =   0.0008889
        k(  715) = (  -0.2671708  -0.1928139   0.0000000), wk =   0.0008889
        k(  716) = (   0.3005671  -0.1349697   0.0000000), wk =   0.0008889
        k(  717) = (  -0.2671708  -0.1928139  -0.0296509), wk =   0.0017778
        k(  718) = (   0.3005671  -0.1349697  -0.0296509), wk =   0.0017778
        k(  719) = (  -0.2671708  -0.1928139  -0.0593018), wk =   0.0017778
        k(  720) = (   0.3005671  -0.1349697  -0.0593018), wk =   0.0017778
        k(  721) = (  -0.2671708  -0.1928139  -0.0889527), wk =   0.0017778
        k(  722) = (   0.3005671  -0.1349697  -0.0889527), wk =   0.0017778
        k(  723) = (  -0.2671708  -0.1928139  -0.1186036), wk =   0.0017778
        k(  724) = (   0.3005671  -0.1349697  -0.1186036), wk =   0.0017778
        k(  725) = (  -0.2671708  -0.1928139   0.1482545), wk =   0.0008889
        k(  726) = (   0.3005671  -0.1349697   0.1482545), wk =   0.0008889
        k(  727) = (  -0.3005671  -0.2120953   0.0000000), wk =   0.0008889
        k(  728) = (   0.3339635  -0.1542511   0.0000000), wk =   0.0008889
        k(  729) = (  -0.3005671  -0.2120953  -0.0296509), wk =   0.0017778
        k(  730) = (   0.3339635  -0.1542511  -0.0296509), wk =   0.0017778
        k(  731) = (  -0.3005671  -0.2120953  -0.0593018), wk =   0.0017778
        k(  732) = (   0.3339635  -0.1542511  -0.0593018), wk =   0.0017778
        k(  733) = (  -0.3005671  -0.2120953  -0.0889527), wk =   0.0017778
        k(  734) = (   0.3339635  -0.1542511  -0.0889527), wk =   0.0017778
        k(  735) = (  -0.3005671  -0.2120953  -0.1186036), wk =   0.0017778
        k(  736) = (   0.3339635  -0.1542511  -0.1186036), wk =   0.0017778
        k(  737) = (  -0.3005671  -0.2120953   0.1482545), wk =   0.0008889
        k(  738) = (   0.3339635  -0.1542511   0.1482545), wk =   0.0008889
        k(  739) = (  -0.3339635  -0.2313767   0.0000000), wk =   0.0008889
        k(  740) = (   0.3673598  -0.1735325   0.0000000), wk =   0.0008889
        k(  741) = (  -0.3339635  -0.2313767  -0.0296509), wk =   0.0017778
        k(  742) = (   0.3673598  -0.1735325  -0.0296509), wk =   0.0017778
        k(  743) = (  -0.3339635  -0.2313767  -0.0593018), wk =   0.0017778
        k(  744) = (   0.3673598  -0.1735325  -0.0593018), wk =   0.0017778
        k(  745) = (  -0.3339635  -0.2313767  -0.0889527), wk =   0.0017778
        k(  746) = (   0.3673598  -0.1735325  -0.0889527), wk =   0.0017778
        k(  747) = (  -0.3339635  -0.2313767  -0.1186036), wk =   0.0017778
        k(  748) = (   0.3673598  -0.1735325  -0.1186036), wk =   0.0017778
        k(  749) = (  -0.3339635  -0.2313767   0.1482545), wk =   0.0008889
        k(  750) = (   0.3673598  -0.1735325   0.1482545), wk =   0.0008889
        k(  751) = (  -0.3673598  -0.2506581   0.0000000), wk =   0.0008889
        k(  752) = (   0.4007562  -0.1928139   0.0000000), wk =   0.0008889
        k(  753) = (  -0.3673598  -0.2506581  -0.0296509), wk =   0.0017778
        k(  754) = (   0.4007562  -0.1928139  -0.0296509), wk =   0.0017778
        k(  755) = (  -0.3673598  -0.2506581  -0.0593018), wk =   0.0017778
        k(  756) = (   0.4007562  -0.1928139  -0.0593018), wk =   0.0017778
        k(  757) = (  -0.3673598  -0.2506581  -0.0889527), wk =   0.0017778
        k(  758) = (   0.4007562  -0.1928139  -0.0889527), wk =   0.0017778
        k(  759) = (  -0.3673598  -0.2506581  -0.1186036), wk =   0.0017778
        k(  760) = (   0.4007562  -0.1928139  -0.1186036), wk =   0.0017778
        k(  761) = (  -0.3673598  -0.2506581   0.1482545), wk =   0.0008889
        k(  762) = (   0.4007562  -0.1928139   0.1482545), wk =   0.0008889
        k(  763) = (  -0.4007562  -0.2699395   0.0000000), wk =   0.0008889
        k(  764) = (   0.4341525  -0.2120953   0.0000000), wk =   0.0008889
        k(  765) = (  -0.4007562  -0.2699395  -0.0296509), wk =   0.0017778
        k(  766) = (   0.4341525  -0.2120953  -0.0296509), wk =   0.0017778
        k(  767) = (  -0.4007562  -0.2699395  -0.0593018), wk =   0.0017778
        k(  768) = (   0.4341525  -0.2120953  -0.0593018), wk =   0.0017778
        k(  769) = (  -0.4007562  -0.2699395  -0.0889527), wk =   0.0017778
        k(  770) = (   0.4341525  -0.2120953  -0.0889527), wk =   0.0017778
        k(  771) = (  -0.4007562  -0.2699395  -0.1186036), wk =   0.0017778
        k(  772) = (   0.4341525  -0.2120953  -0.1186036), wk =   0.0017778
        k(  773) = (  -0.4007562  -0.2699395   0.1482545), wk =   0.0008889
        k(  774) = (   0.4341525  -0.2120953   0.1482545), wk =   0.0008889
        k(  775) = (  -0.4341525  -0.2892208   0.0000000), wk =   0.0008889
        k(  776) = (   0.4675488  -0.2313767   0.0000000), wk =   0.0008889
        k(  777) = (  -0.4341525  -0.2892208  -0.0296509), wk =   0.0017778
        k(  778) = (   0.4675488  -0.2313767  -0.0296509), wk =   0.0017778
        k(  779) = (  -0.4341525  -0.2892208  -0.0593018), wk =   0.0017778
        k(  780) = (   0.4675488  -0.2313767  -0.0593018), wk =   0.0017778
        k(  781) = (  -0.4341525  -0.2892208  -0.0889527), wk =   0.0017778
        k(  782) = (   0.4675488  -0.2313767  -0.0889527), wk =   0.0017778
        k(  783) = (  -0.4341525  -0.2892208  -0.1186036), wk =   0.0017778
        k(  784) = (   0.4675488  -0.2313767  -0.1186036), wk =   0.0017778
        k(  785) = (  -0.4341525  -0.2892208   0.1482545), wk =   0.0008889
        k(  786) = (   0.4675488  -0.2313767   0.1482545), wk =   0.0008889
        k(  787) = (  -0.4675488  -0.3085022   0.0000000), wk =   0.0008889
        k(  788) = (   0.5009452  -0.2506581   0.0000000), wk =   0.0008889
        k(  789) = (  -0.4675488  -0.3085022  -0.0296509), wk =   0.0017778
        k(  790) = (   0.5009452  -0.2506581  -0.0296509), wk =   0.0017778
        k(  791) = (  -0.4675488  -0.3085022  -0.0593018), wk =   0.0017778
        k(  792) = (   0.5009452  -0.2506581  -0.0593018), wk =   0.0017778
        k(  793) = (  -0.4675488  -0.3085022  -0.0889527), wk =   0.0017778
        k(  794) = (   0.5009452  -0.2506581  -0.0889527), wk =   0.0017778
        k(  795) = (  -0.4675488  -0.3085022  -0.1186036), wk =   0.0017778
        k(  796) = (   0.5009452  -0.2506581  -0.1186036), wk =   0.0017778
        k(  797) = (  -0.4675488  -0.3085022   0.1482545), wk =   0.0008889
        k(  798) = (   0.5009452  -0.2506581   0.1482545), wk =   0.0008889
        k(  799) = (   0.1335854   0.0000000   0.0000000), wk =   0.0004444
        k(  800) = (   0.1335854   0.0000000  -0.0296509), wk =   0.0008889
        k(  801) = (   0.1335854   0.0000000  -0.0593018), wk =   0.0008889
        k(  802) = (   0.1335854   0.0000000  -0.0889527), wk =   0.0008889
        k(  803) = (   0.1335854   0.0000000  -0.1186036), wk =   0.0008889
        k(  804) = (   0.1335854   0.0000000   0.1482545), wk =   0.0004444
        k(  805) = (  -0.1001890  -0.1349697   0.0000000), wk =   0.0008889
        k(  806) = (   0.1669817  -0.0192814   0.0000000), wk =   0.0008889
        k(  807) = (  -0.1001890  -0.1349697  -0.0296509), wk =   0.0017778
        k(  808) = (   0.1669817  -0.0192814  -0.0296509), wk =   0.0017778
        k(  809) = (  -0.1001890  -0.1349697  -0.0593018), wk =   0.0017778
        k(  810) = (   0.1669817  -0.0192814  -0.0593018), wk =   0.0017778
        k(  811) = (  -0.1001890  -0.1349697  -0.0889527), wk =   0.0017778
        k(  812) = (   0.1669817  -0.0192814  -0.0889527), wk =   0.0017778
        k(  813) = (  -0.1001890  -0.1349697  -0.1186036), wk =   0.0017778
        k(  814) = (   0.1669817  -0.0192814  -0.1186036), wk =   0.0017778
        k(  815) = (  -0.1001890  -0.1349697   0.1482545), wk =   0.0008889
        k(  816) = (   0.1669817  -0.0192814   0.1482545), wk =   0.0008889
        k(  817) = (  -0.1335854  -0.1542511   0.0000000), wk =   0.0008889
        k(  818) = (   0.2003781  -0.0385628   0.0000000), wk =   0.0008889
        k(  819) = (  -0.1335854  -0.1542511  -0.0296509), wk =   0.0017778
        k(  820) = (   0.2003781  -0.0385628  -0.0296509), wk =   0.0017778
        k(  821) = (  -0.1335854  -0.1542511  -0.0593018), wk =   0.0017778
        k(  822) = (   0.2003781  -0.0385628  -0.0593018), wk =   0.0017778
        k(  823) = (  -0.1335854  -0.1542511  -0.0889527), wk =   0.0017778
        k(  824) = (   0.2003781  -0.0385628  -0.0889527), wk =   0.0017778
        k(  825) = (  -0.1335854  -0.1542511  -0.1186036), wk =   0.0017778
        k(  826) = (   0.2003781  -0.0385628  -0.1186036), wk =   0.0017778
        k(  827) = (  -0.1335854  -0.1542511   0.1482545), wk =   0.0008889
        k(  828) = (   0.2003781  -0.0385628   0.1482545), wk =   0.0008889
        k(  829) = (  -0.1669817  -0.1735325   0.0000000), wk =   0.0008889
        k(  830) = (   0.2337744  -0.0578442   0.0000000), wk =   0.0008889
        k(  831) = (  -0.1669817  -0.1735325  -0.0296509), wk =   0.0017778
        k(  832) = (   0.2337744  -0.0578442  -0.0296509), wk =   0.0017778
        k(  833) = (  -0.1669817  -0.1735325  -0.0593018), wk =   0.0017778
        k(  834) = (   0.2337744  -0.0578442  -0.0593018), wk =   0.0017778
        k(  835) = (  -0.1669817  -0.1735325  -0.0889527), wk =   0.0017778
        k(  836) = (   0.2337744  -0.0578442  -0.0889527), wk =   0.0017778
        k(  837) = (  -0.1669817  -0.1735325  -0.1186036), wk =   0.0017778
        k(  838) = (   0.2337744  -0.0578442  -0.1186036), wk =   0.0017778
        k(  839) = (  -0.1669817  -0.1735325   0.1482545), wk =   0.0008889
        k(  840) = (   0.2337744  -0.0578442   0.1482545), wk =   0.0008889
        k(  841) = (  -0.2003781  -0.1928139   0.0000000), wk =   0.0008889
        k(  842) = (   0.2671708  -0.0771256   0.0000000), wk =   0.0008889
        k(  843) = (  -0.2003781  -0.1928139  -0.0296509), wk =   0.0017778
        k(  844) = (   0.2671708  -0.0771256  -0.0296509), wk =   0.0017778
        k(  845) = (  -0.2003781  -0.1928139  -0.0593018), wk =   0.0017778
        k(  846) = (   0.2671708  -0.0771256  -0.0593018), wk =   0.0017778
        k(  847) = (  -0.2003781  -0.1928139  -0.0889527), wk =   0.0017778
        k(  848) = (   0.2671708  -0.0771256  -0.0889527), wk =   0.0017778
        k(  849) = (  -0.2003781  -0.1928139  -0.1186036), wk =   0.0017778
        k(  850) = (   0.2671708  -0.0771256  -0.1186036), wk =   0.0017778
        k(  851) = (  -0.2003781  -0.1928139   0.1482545), wk =   0.0008889
        k(  852) = (   0.2671708  -0.0771256   0.1482545), wk =   0.0008889
        k(  853) = (  -0.2337744  -0.2120953   0.0000000), wk =   0.0008889
        k(  854) = (   0.3005671  -0.0964069   0.0000000), wk =   0.0008889
        k(  855) = (  -0.2337744  -0.2120953  -0.0296509), wk =   0.0017778
        k(  856) = (   0.3005671  -0.0964069  -0.0296509), wk =   0.0017778
        k(  857) = (  -0.2337744  -0.2120953  -0.0593018), wk =   0.0017778
        k(  858) = (   0.3005671  -0.0964069  -0.0593018), wk =   0.0017778
        k(  859) = (  -0.2337744  -0.2120953  -0.0889527), wk =   0.0017778
        k(  860) = (   0.3005671  -0.0964069  -0.0889527), wk =   0.0017778
        k(  861) = (  -0.2337744  -0.2120953  -0.1186036), wk =   0.0017778
        k(  862) = (   0.3005671  -0.0964069  -0.1186036), wk =   0.0017778
        k(  863) = (  -0.2337744  -0.2120953   0.1482545), wk =   0.0008889
        k(  864) = (   0.3005671  -0.0964069   0.1482545), wk =   0.0008889
        k(  865) = (  -0.2671708  -0.2313767   0.0000000), wk =   0.0008889
        k(  866) = (   0.3339635  -0.1156883   0.0000000), wk =   0.0008889
        k(  867) = (  -0.2671708  -0.2313767  -0.0296509), wk =   0.0017778
        k(  868) = (   0.3339635  -0.1156883  -0.0296509), wk =   0.0017778
        k(  869) = (  -0.2671708  -0.2313767  -0.0593018), wk =   0.0017778
        k(  870) = (   0.3339635  -0.1156883  -0.0593018), wk =   0.0017778
        k(  871) = (  -0.2671708  -0.2313767  -0.0889527), wk =   0.0017778
        k(  872) = (   0.3339635  -0.1156883  -0.0889527), wk =   0.0017778
        k(  873) = (  -0.2671708  -0.2313767  -0.1186036), wk =   0.0017778
        k(  874) = (   0.3339635  -0.1156883  -0.1186036), wk =   0.0017778
        k(  875) = (  -0.2671708  -0.2313767   0.1482545), wk =   0.0008889
        k(  876) = (   0.3339635  -0.1156883   0.1482545), wk =   0.0008889
        k(  877) = (  -0.3005671  -0.2506581   0.0000000), wk =   0.0008889
        k(  878) = (   0.3673598  -0.1349697   0.0000000), wk =   0.0008889
        k(  879) = (  -0.3005671  -0.2506581  -0.0296509), wk =   0.0017778
        k(  880) = (   0.3673598  -0.1349697  -0.0296509), wk =   0.0017778
        k(  881) = (  -0.3005671  -0.2506581  -0.0593018), wk =   0.0017778
        k(  882) = (   0.3673598  -0.1349697  -0.0593018), wk =   0.0017778
        k(  883) = (  -0.3005671  -0.2506581  -0.0889527), wk =   0.0017778
        k(  884) = (   0.3673598  -0.1349697  -0.0889527), wk =   0.0017778
        k(  885) = (  -0.3005671  -0.2506581  -0.1186036), wk =   0.0017778
        k(  886) = (   0.3673598  -0.1349697  -0.1186036), wk =   0.0017778
        k(  887) = (  -0.3005671  -0.2506581   0.1482545), wk =   0.0008889
        k(  888) = (   0.3673598  -0.1349697   0.1482545), wk =   0.0008889
        k(  889) = (  -0.3339635  -0.2699395   0.0000000), wk =   0.0008889
        k(  890) = (   0.4007562  -0.1542511   0.0000000), wk =   0.0008889
        k(  891) = (  -0.3339635  -0.2699395  -0.0296509), wk =   0.0017778
        k(  892) = (   0.4007562  -0.1542511  -0.0296509), wk =   0.0017778
        k(  893) = (  -0.3339635  -0.2699395  -0.0593018), wk =   0.0017778
        k(  894) = (   0.4007562  -0.1542511  -0.0593018), wk =   0.0017778
        k(  895) = (  -0.3339635  -0.2699395  -0.0889527), wk =   0.0017778
        k(  896) = (   0.4007562  -0.1542511  -0.0889527), wk =   0.0017778
        k(  897) = (  -0.3339635  -0.2699395  -0.1186036), wk =   0.0017778
        k(  898) = (   0.4007562  -0.1542511  -0.1186036), wk =   0.0017778
        k(  899) = (  -0.3339635  -0.2699395   0.1482545), wk =   0.0008889
        k(  900) = (   0.4007562  -0.1542511   0.1482545), wk =   0.0008889
        k(  901) = (  -0.3673598  -0.2892208   0.0000000), wk =   0.0008889
        k(  902) = (   0.4341525  -0.1735325   0.0000000), wk =   0.0008889
        k(  903) = (  -0.3673598  -0.2892208  -0.0296509), wk =   0.0017778
        k(  904) = (   0.4341525  -0.1735325  -0.0296509), wk =   0.0017778
        k(  905) = (  -0.3673598  -0.2892208  -0.0593018), wk =   0.0017778
        k(  906) = (   0.4341525  -0.1735325  -0.0593018), wk =   0.0017778
        k(  907) = (  -0.3673598  -0.2892208  -0.0889527), wk =   0.0017778
        k(  908) = (   0.4341525  -0.1735325  -0.0889527), wk =   0.0017778
        k(  909) = (  -0.3673598  -0.2892208  -0.1186036), wk =   0.0017778
        k(  910) = (   0.4341525  -0.1735325  -0.1186036), wk =   0.0017778
        k(  911) = (  -0.3673598  -0.2892208   0.1482545), wk =   0.0008889
        k(  912) = (   0.4341525  -0.1735325   0.1482545), wk =   0.0008889
        k(  913) = (  -0.4007562  -0.3085022   0.0000000), wk =   0.0008889
        k(  914) = (   0.4675488  -0.1928139   0.0000000), wk =   0.0008889
        k(  915) = (  -0.4007562  -0.3085022  -0.0296509), wk =   0.0017778
        k(  916) = (   0.4675488  -0.1928139  -0.0296509), wk =   0.0017778
        k(  917) = (  -0.4007562  -0.3085022  -0.0593018), wk =   0.0017778
        k(  918) = (   0.4675488  -0.1928139  -0.0593018), wk =   0.0017778
        k(  919) = (  -0.4007562  -0.3085022  -0.0889527), wk =   0.0017778
        k(  920) = (   0.4675488  -0.1928139  -0.0889527), wk =   0.0017778
        k(  921) = (  -0.4007562  -0.3085022  -0.1186036), wk =   0.0017778
        k(  922) = (   0.4675488  -0.1928139  -0.1186036), wk =   0.0017778
        k(  923) = (  -0.4007562  -0.3085022   0.1482545), wk =   0.0008889
        k(  924) = (   0.4675488  -0.1928139   0.1482545), wk =   0.0008889
        k(  925) = (  -0.4341525  -0.3277836   0.0000000), wk =   0.0008889
        k(  926) = (   0.5009452  -0.2120953   0.0000000), wk =   0.0008889
        k(  927) = (  -0.4341525  -0.3277836  -0.0296509), wk =   0.0017778
        k(  928) = (   0.5009452  -0.2120953  -0.0296509), wk =   0.0017778
        k(  929) = (  -0.4341525  -0.3277836  -0.0593018), wk =   0.0017778
        k(  930) = (   0.5009452  -0.2120953  -0.0593018), wk =   0.0017778
        k(  931) = (  -0.4341525  -0.3277836  -0.0889527), wk =   0.0017778
        k(  932) = (   0.5009452  -0.2120953  -0.0889527), wk =   0.0017778
        k(  933) = (  -0.4341525  -0.3277836  -0.1186036), wk =   0.0017778
        k(  934) = (   0.5009452  -0.2120953  -0.1186036), wk =   0.0017778
        k(  935) = (  -0.4341525  -0.3277836   0.1482545), wk =   0.0008889
        k(  936) = (   0.5009452  -0.2120953   0.1482545), wk =   0.0008889
        k(  937) = (  -0.4675488  -0.3470650   0.0000000), wk =   0.0008889
        k(  938) = (  -0.4675488  -0.3470650  -0.0296509), wk =   0.0017778
        k(  939) = (  -0.4675488  -0.3470650  -0.0593018), wk =   0.0017778
        k(  940) = (  -0.4675488  -0.3470650  -0.0889527), wk =   0.0017778
        k(  941) = (  -0.4675488  -0.3470650  -0.1186036), wk =   0.0017778
        k(  942) = (  -0.4675488  -0.3470650   0.1482545), wk =   0.0008889
        k(  943) = (   0.2003781   0.0000000   0.0000000), wk =   0.0004444
        k(  944) = (   0.2003781   0.0000000  -0.0296509), wk =   0.0008889
        k(  945) = (   0.2003781   0.0000000  -0.0593018), wk =   0.0008889
        k(  946) = (   0.2003781   0.0000000  -0.0889527), wk =   0.0008889
        k(  947) = (   0.2003781   0.0000000  -0.1186036), wk =   0.0008889
[...]
     1.0000   1.0000   1.0000   1.0000   1.0000   1.0000   1.0000   1.0000
     0.0000   0.0000   0.0000   0.0000   0.0000   0.0000   0.0000   0.0000

          k =-0.3006-0.4820-0.0593 (  1526 PWs)   bands (ev):

    -9.2978  -9.2767  -6.6883  -6.6785  -4.9459  -4.9388   3.1208   3.3708
     6.3537   6.4713  15.1874  15.4856  16.5142  17.2806  17.7209  17.7748

     occupation numbers 
     1.0000   1.0000   1.0000   1.0000   1.0000   1.0000   1.0000   1.0000
     0.0000   0.0000   0.0000   0.0000   0.0000   0.0000   0.0000   0.0000

          k = 0.5677-0.0193-0.0593 (  1526 PWs)   bands (ev):

    -9.2978  -9.2766  -6.6887  -6.6789  -4.9455  -4.9384   3.1211   3.3711
     6.3533   6.4708  15.1874  15.4858  16.5143  17.2807  17.7202  17.7759

     occupation numbers 
     1.0000   1.0000   1.0000   1.0000   1.0000   1.0000   1.0000   1.0000
     0.0000   0.0000   0.0000   0.0000   0.0000   0.0000   0.0000   0.0000

          k =-0.3006-0.4820-0.0890 (  1527 PWs)   bands (ev):

    -9.2950  -9.2796  -6.6869  -6.6799  -4.9449  -4.9398   3.1541   3.3357
     6.3694   6.4548  15.1856  15.3967  16.7478  17.4018  17.6749  17.9205

     occupation numbers 
     1.0000   1.0000   1.0000   1.0000   1.0000   1.0000   1.0000   1.0000
     0.0000   0.0000   0.0000   0.0000   0.0000   0.0000   0.0000   0.0000

          k = 0.5677-0.0193-0.0890 (  1527 PWs)   bands (ev):

    -9.2949  -9.2795  -6.6873  -6.6802  -4.9446  -4.9394   3.1544   3.3360
     6.3690   6.4543  15.1857  15.3970  16.7478  17.4019  17.6748  17.9210

     occupation numbers 
     1.0000   1.0000   1.0000   1.0000   1.0000   1.0000   1.0000   1.0000
     0.0000   0.0000   0.0000   0.0000   0.0000   0.0000   0.0000   0.0000

          k =-0.3006-0.4820-0.1186 (  1529 PWs)   bands (ev):

    -9.2913  -9.2832  -6.6853  -6.6815  -4.9437  -4.9410   3.1964   3.2919
     6.3893   6.4342  15.2025  15.3114  17.0397  17.5092  17.6010  18.0149

     occupation numbers 
     1.0000   1.0000   1.0000   1.0000   1.0000   1.0000   1.0000   1.0000
     0.0000   0.0000   0.0000   0.0000   0.0000   0.0000   0.0000   0.0000

          k = 0.5677-0.0193-0.1186 (  1529 PWs)   bands (ev):

    -9.2913  -9.2832  -6.6856  -6.6819  -4.9433  -4.9406   3.1967   3.2922
     6.3889   6.4338  15.2027  15.3116  17.0395  17.5088  17.6015  18.0156

     occupation numbers 
     1.0000   1.0000   1.0000   1.0000   1.0000   1.0000   1.0000   1.0000
     0.0000   0.0000   0.0000   0.0000   0.0000   0.0000   0.0000   0.0000

          k =-0.3006-0.4820 0.1483 (  1534 PWs)   bands (ev):

    -9.2873  -9.2873  -6.6834  -6.6834  -4.9424  -4.9424   3.2439   3.2439
     6.4116   6.4116  15.2444  15.2444  17.3285  17.3285  17.7871  17.7871

     occupation numbers 
     1.0000   1.0000   1.0000   1.0000   1.0000   1.0000   1.0000   1.0000
     0.0000   0.0000   0.0000   0.0000   0.0000   0.0000   0.0000   0.0000

          k = 0.5677-0.0193 0.1483 (  1534 PWs)   bands (ev):

    -9.2873  -9.2873  -6.6838  -6.6838  -4.9420  -4.9420   3.2441   3.2441
     6.4112   6.4112  15.2446  15.2446  17.3281  17.3281  17.7877  17.7877

     occupation numbers 
     1.0000   1.0000   1.0000   1.0000   1.0000   1.0000   1.0000   1.0000
     0.0000   0.0000   0.0000   0.0000   0.0000   0.0000   0.0000   0.0000

          k =-0.3340-0.5013 0.0000 (  1529 PWs)   bands (ev):

    -8.7339  -8.7114  -7.2338  -7.2197  -5.1392  -5.1283   3.6309   3.8725
     5.8255   5.9492  15.6155  15.9853  16.0166  17.0930  17.3438  17.7812

     occupation numbers 
     1.0000   1.0000   1.0000   1.0000   1.0000   1.0000   1.0000   1.0000
     0.0000   0.0000   0.0000   0.0000   0.0000   0.0000   0.0000   0.0000

          k = 0.6011-0.0386 0.0000 (  1529 PWs)   bands (ev):

    -8.7338  -8.7113  -7.2340  -7.2200  -5.1390  -5.1281   3.6311   3.8727
     5.8252   5.9488  15.6157  15.9853  16.0167  17.0929  17.3438  17.7815

     occupation numbers 
     1.0000   1.0000   1.0000   1.0000   1.0000   1.0000   1.0000   1.0000
     0.0000   0.0000   0.0000   0.0000   0.0000   0.0000   0.0000   0.0000

          k =-0.3340-0.5013-0.0297 (  1527 PWs)   bands (ev):

    -8.7333  -8.7119  -7.2335  -7.2201  -5.1389  -5.1286   3.6368   3.8667
     5.8281   5.9458  15.5868  15.7799  16.2609  17.1246  17.4135  17.7704

     occupation numbers 
     1.0000   1.0000   1.0000   1.0000   1.0000   1.0000   1.0000   1.0000
     0.0000   0.0000   0.0000   0.0000   0.0000   0.0000   0.0000   0.0000

          k = 0.6011-0.0386-0.0297 (  1527 PWs)   bands (ev):

    -8.7332  -8.7119  -7.2337  -7.2203  -5.1387  -5.1284   3.6370   3.8669
     5.8279   5.9454  15.5869  15.7800  16.2609  17.1245  17.4134  17.7707

     occupation numbers 
     1.0000   1.0000   1.0000   1.0000   1.0000   1.0000   1.0000   1.0000
     0.0000   0.0000   0.0000   0.0000   0.0000   0.0000   0.0000   0.0000

          k =-0.3340-0.5013-0.0593 (  1527 PWs)   bands (ev):

    -8.7317  -8.7135  -7.2325  -7.2211  -5.1382  -5.1294   3.6540   3.8497
     5.8359   5.9360  15.5172  15.6043  16.5520  17.2160  17.5837  17.7576

     occupation numbers 
     1.0000   1.0000   1.0000   1.0000   1.0000   1.0000   1.0000   1.0000
     0.0000   0.0000   0.0000   0.0000   0.0000   0.0000   0.0000   0.0000

          k = 0.6011-0.0386-0.0593 (  1527 PWs)   bands (ev):

    -8.7317  -8.7135  -7.2327  -7.2213  -5.1380  -5.1292   3.6543   3.8499
     5.8356   5.9356  15.5173  15.6045  16.5519  17.2160  17.5833  17.7583

     occupation numbers 
     1.0000   1.0000   1.0000   1.0000   1.0000   1.0000   1.0000   1.0000
     0.0000   0.0000   0.0000   0.0000   0.0000   0.0000   0.0000   0.0000

          k =-0.3340-0.5013-0.0890 (  1528 PWs)   bands (ev):

    -8.7292  -8.7160  -7.2309  -7.2227  -5.1370  -5.1306   3.6809   3.8231
     5.8483   5.9210  15.4400  15.4774  16.8614  17.3646  17.6148  17.9359

     occupation numbers 
     1.0000   1.0000   1.0000   1.0000   1.0000   1.0000   1.0000   1.0000
     0.0000   0.0000   0.0000   0.0000   0.0000   0.0000   0.0000   0.0000

          k = 0.6011-0.0386-0.0890 (  1528 PWs)   bands (ev):

    -8.7292  -8.7160  -7.2311  -7.2229  -5.1368  -5.1304   3.6811   3.8233
     5.8480   5.9207  15.4401  15.4776  16.8613  17.3645  17.6145  17.9365

     occupation numbers 
     1.0000   1.0000   1.0000   1.0000   1.0000   1.0000   1.0000   1.0000
     0.0000   0.0000   0.0000   0.0000   0.0000   0.0000   0.0000   0.0000

          k =-0.3340-0.5013-0.1186 (  1534 PWs)   bands (ev):

    -8.7261  -8.7192  -7.2290  -7.2246  -5.1355  -5.1321   3.7147   3.7895
     5.8645   5.9027  15.3845  15.3996  17.1512  17.5162  17.5894  18.1520

     occupation numbers 
     1.0000   1.0000   1.0000   1.0000   1.0000   1.0000   1.0000   1.0000
     0.0000   0.0000   0.0000   0.0000   0.0000   0.0000   0.0000   0.0000

          k = 0.6011-0.0386-0.1186 (  1534 PWs)   bands (ev):

    -8.7261  -8.7191  -7.2292  -7.2249  -5.1353  -5.1319   3.7149   3.7897
     5.8642   5.9024  15.3846  15.3997  17.1510  17.5159  17.5896  18.1524

     occupation numbers 
     1.0000   1.0000   1.0000   1.0000   1.0000   1.0000   1.0000   1.0000
     0.0000   0.0000   0.0000   0.0000   0.0000   0.0000   0.0000   0.0000

          k =-0.3340-0.5013 0.1483 (  1538 PWs)   bands (ev):

    -8.7226  -8.7226  -7.2268  -7.2268  -5.1338  -5.1338   3.7521   3.7521
     5.8832   5.8832  15.3689  15.3689  17.3690  17.3690  17.9046  17.9046

     occupation numbers 
     1.0000   1.0000   1.0000   1.0000   1.0000   1.0000   1.0000   1.0000
     0.0000   0.0000   0.0000   0.0000   0.0000   0.0000   0.0000   0.0000

          k = 0.6011-0.0386 0.1483 (  1538 PWs)   bands (ev):

    -8.7226  -8.7226  -7.2271  -7.2271  -5.1336  -5.1336   3.7523   3.7523
     5.8829   5.8829  15.3690  15.3690  17.3688  17.3688  17.9048  17.9048

     occupation numbers 
     1.0000   1.0000   1.0000   1.0000   1.0000   1.0000   1.0000   1.0000
     0.0000   0.0000   0.0000   0.0000   0.0000   0.0000   0.0000   0.0000

          k =-0.3674-0.5206 0.0000 (  1523 PWs)   bands (ev):

    -8.3787  -8.3658  -7.5767  -7.5723  -5.1994  -5.1878   3.9095   4.0719
     5.6244   5.6586  15.6454  15.8937  16.6361  16.8270  17.0976  17.7614

     occupation numbers 
     1.0000   1.0000   1.0000   1.0000   1.0000   1.0000   1.0000   1.0000
     0.0000   0.0000   0.0000   0.0000   0.0000   0.0000   0.0000   0.0000

          k =-0.3674-0.5206-0.0297 (  1524 PWs)   bands (ev):

    -8.3784  -8.3661  -7.5766  -7.5724  -5.1992  -5.1881   3.9139   4.0685
     5.6245   5.6569  15.6117  15.8153  16.6955  16.9625  17.1345  17.7486

     occupation numbers 
     1.0000   1.0000   1.0000   1.0000   1.0000   1.0000   1.0000   1.0000
     0.0000   0.0000   0.0000   0.0000   0.0000   0.0000   0.0000   0.0000

          k =-0.3674-0.5206-0.0593 (  1527 PWs)   bands (ev):

    -8.3774  -8.3670  -7.5763  -7.5728  -5.1983  -5.1889   3.9267   4.0583
     5.6249   5.6521  15.5353  15.6642  16.8469  17.2447  17.2775  17.7139

     occupation numbers 
     1.0000   1.0000   1.0000   1.0000   1.0000   1.0000   1.0000   1.0000
     0.0000   0.0000   0.0000   0.0000   0.0000   0.0000   0.0000   0.0000

          k =-0.3674-0.5206-0.0890 (  1534 PWs)   bands (ev):

    -8.3760  -8.3684  -7.5759  -7.5733  -5.1971  -5.1902   3.9462   4.0420
     5.6260   5.6455  15.4571  15.5277  17.0385  17.4310  17.5664  17.7615

     occupation numbers 
     1.0000   1.0000   1.0000   1.0000   1.0000   1.0000   1.0000   1.0000
     0.0000   0.0000   0.0000   0.0000   0.0000   0.0000   0.0000   0.0000

          k =-0.3674-0.5206-0.1186 (  1538 PWs)   bands (ev):

    -8.3742  -8.3702  -7.5753  -7.5739  -5.1955  -5.1919   3.9702   4.0206
     5.6285   5.6386  15.4053  15.4356  17.2246  17.5086  17.6969  18.1044

     occupation numbers 
     1.0000   1.0000   1.0000   1.0000   1.0000   1.0000   1.0000   1.0000
     0.0000   0.0000   0.0000   0.0000   0.0000   0.0000   0.0000   0.0000

          k =-0.3674-0.5206 0.1483 (  1534 PWs)   bands (ev):

    -8.3722  -8.3722  -7.5746  -7.5746  -5.1936  -5.1936   3.9959   3.9959
     5.6327   5.6327  15.3954  15.3954  17.3832  17.3832  18.0124  18.0124

     occupation numbers 
     1.0000   1.0000   1.0000   1.0000   1.0000   1.0000   1.0000   1.0000
     0.0000   0.0000   0.0000   0.0000   0.0000   0.0000   0.0000   0.0000

          k = 0.6011 0.0000 0.0000 (  1537 PWs)   bands (ev):

    -8.7384  -8.7150  -7.0456  -7.0347  -5.3650  -5.3583   3.6791   3.9457
     5.7757   5.9263  15.5313  15.9316  15.9537  17.4008  17.5086  18.5823

     occupation numbers 
     1.0000   1.0000   1.0000   1.0000   1.0000   1.0000   1.0000   1.0000
     0.0000   0.0000   0.0000   0.0000   0.0000   0.0000   0.0000   0.0000

          k = 0.6011 0.0000-0.0297 (  1525 PWs)   bands (ev):

    -8.7378  -8.7155  -7.0453  -7.0350  -5.3649  -5.3585   3.6855   3.9391
     5.7792   5.9224  15.5066  15.7139  16.2152  17.4462  17.5599  18.5460

     occupation numbers 
     1.0000   1.0000   1.0000   1.0000   1.0000   1.0000   1.0000   1.0000
     0.0000   0.0000   0.0000   0.0000   0.0000   0.0000   0.0000   0.0000

          k = 0.6011 0.0000-0.0593 (  1524 PWs)   bands (ev):

    -8.7361  -8.7172  -7.0445  -7.0357  -5.3644  -5.3590   3.7041   3.9198
     5.7895   5.9112  15.4452  15.5335  16.5265  17.5784  17.6975  18.4368

     occupation numbers 
     1.0000   1.0000   1.0000   1.0000   1.0000   1.0000   1.0000   1.0000
     0.0000   0.0000   0.0000   0.0000   0.0000   0.0000   0.0000   0.0000

          k = 0.6011 0.0000-0.0890 (  1525 PWs)   bands (ev):

    -8.7335  -8.7198  -7.0433  -7.0369  -5.3637  -5.3598   3.7332   3.8900
     5.8056   5.8939  15.3747  15.4042  16.8714  17.7867  17.8791  18.2599

     occupation numbers 
     1.0000   1.0000   1.0000   1.0000   1.0000   1.0000   1.0000   1.0000
     0.0000   0.0000   0.0000   0.0000   0.0000   0.0000   0.0000   0.0000

          k = 0.6011 0.0000-0.1186 (  1536 PWs)   bands (ev):

    -8.7303  -8.7231  -7.0418  -7.0385  -5.3628  -5.3607   3.7701   3.8525
     5.8261   5.8725  15.3207  15.3274  17.2390  17.9108  18.0574  18.1721

     occupation numbers 
     1.0000   1.0000   1.0000   1.0000   1.0000   1.0000   1.0000   1.0000
     0.0000   0.0000   0.0000   0.0000   0.0000   0.0000   0.0000   0.0000

          k = 0.6011 0.0000 0.1483 (  1538 PWs)   bands (ev):

    -8.7267  -8.7267  -7.0401  -7.0401  -5.3618  -5.3618   3.8112   3.8112
     5.8491   5.8491  15.3014  15.3014  17.6053  17.6053  18.3233  18.3233

     occupation numbers 
     1.0000   1.0000   1.0000   1.0000   1.0000   1.0000   1.0000   1.0000
     0.0000   0.0000   0.0000   0.0000   0.0000   0.0000   0.0000   0.0000

          k =-0.3340-0.5399 0.0000 (  1523 PWs)   bands (ev):

    -8.2206  -8.2027  -7.4553  -7.4449  -5.5796  -5.5727   4.1940   4.3913
     5.3092   5.4391  15.5257  15.7025  16.6535  17.2317  17.4309  18.6449

     occupation numbers 
     1.0000   1.0000   1.0000   1.0000   1.0000   1.0000   1.0000   1.0000
    -0.0001   0.0000   0.0000   0.0000   0.0000   0.0000   0.0000   0.0000

          k = 0.6345-0.0193 0.0000 (  1523 PWs)   bands (ev):

    -8.2204  -8.2025  -7.4555  -7.4452  -5.5795  -5.5726   4.1943   4.3915
     5.3089   5.4387  15.5257  15.7026  16.6535  17.2315  17.4310  18.6450

     occupation numbers 
     1.0000   1.0000   1.0000   1.0000   1.0000   1.0000   1.0000   1.0000
    -0.0001   0.0000   0.0000   0.0000   0.0000   0.0000   0.0000   0.0000

          k =-0.3340-0.5399-0.0297 (  1525 PWs)   bands (ev):

    -8.2201  -8.2031  -7.4550  -7.4452  -5.5795  -5.5729   4.1992   4.3869
     5.3118   5.4352  15.4968  15.6432  16.7411  17.3041  17.4884  18.6112

     occupation numbers 
     1.0000   1.0000   1.0000   1.0000   1.0000   1.0000   1.0000   1.0000
    -0.0001   0.0000   0.0000   0.0000   0.0000   0.0000   0.0000   0.0000

          k = 0.6345-0.0193-0.0297 (  1525 PWs)   bands (ev):

    -8.2200  -8.2030  -7.4553  -7.4455  -5.5793  -5.5728   4.1995   4.3871
     5.3115   5.4348  15.4969  15.6433  16.7411  17.3038  17.4886  18.6113

     occupation numbers 
     1.0000   1.0000   1.0000   1.0000   1.0000   1.0000   1.0000   1.0000
    -0.0001   0.0000   0.0000   0.0000   0.0000   0.0000   0.0000   0.0000

          k =-0.3340-0.5399-0.0593 (  1524 PWs)   bands (ev):

    -8.2189  -8.2044  -7.4543  -7.4459  -5.5790  -5.5734   4.2142   4.3740
     5.3194   5.4242  15.4277  15.5199  16.9477  17.5066  17.6524  18.5094

     occupation numbers 
     1.0000   1.0000   1.0000   1.0000   1.0000   1.0000   1.0000   1.0000
    -0.0000   0.0000   0.0000   0.0000   0.0000   0.0000   0.0000   0.0000

          k = 0.6345-0.0193-0.0593 (  1524 PWs)   bands (ev):

    -8.2187  -8.2042  -7.4545  -7.4462  -5.5789  -5.5733   4.2144   4.3743
     5.3191   5.4239  15.4278  15.5199  16.9477  17.5063  17.6527  18.5094

     occupation numbers 
     1.0000   1.0000   1.0000   1.0000   1.0000   1.0000   1.0000   1.0000
    -0.0000   0.0000   0.0000   0.0000   0.0000   0.0000   0.0000   0.0000

          k =-0.3340-0.5399-0.0890 (  1529 PWs)   bands (ev):

    -8.2169  -8.2064  -7.4532  -7.4471  -5.5783  -5.5742   4.2372   4.3536
     5.3317   5.4077  15.3526  15.4017  17.2059  17.7956  17.9037  18.3436

     occupation numbers 
     1.0000   1.0000   1.0000   1.0000   1.0000   1.0000   1.0000   1.0001
    -0.0000   0.0000   0.0000   0.0000   0.0000   0.0000   0.0000   0.0000

          k = 0.6345-0.0193-0.0890 (  1529 PWs)   bands (ev):

    -8.2167  -8.2062  -7.4534  -7.4474  -5.5781  -5.5741   4.2374   4.3538
     5.3314   5.4074  15.3526  15.4018  17.2058  17.7953  17.9039  18.3438

     occupation numbers 
     1.0000   1.0000   1.0000   1.0000   1.0000   1.0000   1.0000   1.0001
    -0.0000   0.0000   0.0000   0.0000   0.0000   0.0000   0.0000   0.0000

          k =-0.3340-0.5399-0.1186 (  1543 PWs)   bands (ev):

    -8.2144  -8.2089  -7.4518  -7.4486  -5.5773  -5.5752   4.2657   4.3270
     5.3480   5.3879  15.2997  15.3204  17.4906  18.0438  18.1043  18.3126

     occupation numbers 
     1.0000   1.0000   1.0000   1.0000   1.0000   1.0000   1.0000   1.0001
     0.0000   0.0000   0.0000   0.0000   0.0000   0.0000   0.0000   0.0000

          k = 0.6345-0.0193-0.1186 (  1543 PWs)   bands (ev):

    -8.2143  -8.2087  -7.4520  -7.4488  -5.5772  -5.5750   4.2660   4.3273
     5.3478   5.3876  15.2998  15.3205  17.4905  18.0435  18.1042  18.3132

     occupation numbers 
     1.0000   1.0000   1.0000   1.0000   1.0000   1.0000   1.0000   1.0001
     0.0000   0.0000   0.0000   0.0000   0.0000   0.0000   0.0000   0.0000

          k =-0.3340-0.5399 0.1483 (  1546 PWs)   bands (ev):

    -8.2116  -8.2116  -7.4502  -7.4502  -5.5763  -5.5763   4.2968   4.2968
     5.3673   5.3673  15.2864  15.2864  17.7851  17.7851  18.4028  18.4028

     occupation numbers 
     1.0000   1.0000   1.0000   1.0000   1.0000   1.0000   1.0000   1.0000
     0.0000   0.0000   0.0000   0.0000   0.0000   0.0000   0.0000   0.0000

          k = 0.6345-0.0193 0.1483 (  1546 PWs)   bands (ev):

    -8.2115  -8.2115  -7.4505  -7.4505  -5.5761  -5.5761   4.2971   4.2971
     5.3670   5.3670  15.2864  15.2864  17.7850  17.7850  18.4029  18.4029

     occupation numbers 
     1.0000   1.0000   1.0000   1.0000   1.0000   1.0000   1.0000   1.0000
     0.0000   0.0000   0.0000   0.0000   0.0000   0.0000   0.0000   0.0000

     the Fermi energy is     4.8372 ev
     (compare with:     4.8728 eV, computed in scf)

     Writing output data file ./tmp/C_k30.save/

     init_run     :      1.40s CPU      1.45s WALL (       1 calls)
     electrons    :   1490.19s CPU   1549.14s WALL (       1 calls)

     Called by init_run:
     wfcinit      :      0.00s CPU      0.00s WALL (       1 calls)
     wfcinit:atom :      2.29s CPU      2.66s WALL (    1446 calls)
     wfcinit:wfcr :     61.90s CPU     64.42s WALL (    1446 calls)
     potinit      :      0.19s CPU      0.21s WALL (       1 calls)
     hinit0       :      0.63s CPU      0.65s WALL (       1 calls)

     Called by electrons:
     c_bands      :   1488.24s CPU   1547.17s WALL (       1 calls)
     v_of_rho     :      0.17s CPU      0.17s WALL (       1 calls)
     v_h          :      0.01s CPU      0.01s WALL (       1 calls)
     v_xc         :      0.16s CPU      0.16s WALL (       1 calls)
     newd         :      0.05s CPU      0.06s WALL (       1 calls)

     Called by c_bands:
     init_us_2    :      2.66s CPU      3.40s WALL (    1446 calls)
     cegterg      :   1402.19s CPU   1454.81s WALL (    2819 calls)

     Called by sum_band:

     Called by *egterg:
     cdiaghg      :     72.29s CPU     75.12s WALL (   45143 calls)
     cegterg:over :    101.17s CPU    105.05s WALL (   43697 calls)
     cegterg:upda :     66.72s CPU     69.23s WALL (   43697 calls)
     cegterg:last :    132.70s CPU    136.32s WALL (   24958 calls)
     h_psi        :    989.71s CPU   1029.52s WALL (   47962 calls)
     s_psi        :     55.47s CPU     57.70s WALL (   47962 calls)
     g_psi        :     15.26s CPU     15.90s WALL (   43697 calls)

     Called by h_psi:
     h_psi:calbec :     64.40s CPU     66.91s WALL (   47962 calls)
     vloc_psi     :    853.24s CPU    887.86s WALL (   47962 calls)
     add_vuspsi   :     61.03s CPU     63.61s WALL (   47962 calls)

     General routines
     calbec       :     63.28s CPU     66.12s WALL (   47962 calls)
     fft          :      0.10s CPU      0.10s WALL (      13 calls)
     ffts         :      0.01s CPU      0.01s WALL (       1 calls)
     fftw         :    685.64s CPU    714.83s WALL (  855512 calls)
     interpolate  :      0.02s CPU      0.02s WALL (       1 calls)
     davcio       :      1.51s CPU      3.46s WALL (    2892 calls)

     Parallel routines

     PWSCF        :  25m 4.94s CPU  26m22.54s WALL


   This run was terminated on:  23:57:14  26May2022            

=------------------------------------------------------------------------------=
   JOB DONE.
=------------------------------------------------------------------------------=
