
     Program BANDS v.6.7MaX starts on 24May2022 at 10:41:23 

     This program is part of the open-source Quantum ESPRESSO suite
     for quantum simulation of materials; please cite
         "P. Giannozzi et al., J. Phys.:Condens. Matter 21 395502 (2009);
         "P. Giannozzi et al., J. Phys.:Condens. Matter 29 465901 (2017);
          URL http://www.quantum-espresso.org", 
     in publications or presentations arising from this work. More details at
     http://www.quantum-espresso.org/quote

     Parallel version (MPI), running on     1 processors

     MPI processes distributed on     1 nodes

     Reading xml data from directory:

     ./tmp/C.save/

     IMPORTANT: XC functional enforced from input :
     Exchange-correlation= PBE
                           (   1   4   3   4   0   0   0)
     Any further DFT definition will be discarded
     Please, verify this is what you really want


     G-vector sticks info
     --------------------
     sticks:   dense  smooth     PW     G-vecs:    dense   smooth      PW
     Sum         547     265     85                34133    11995    2223


     Check: negative core charge=   -0.000011
     Reading collected, re-writing distributed wavefunctions
     high-symmetry point:  0.0000 0.0000 0.0000   x coordinate   0.0000
     high-symmetry point:  0.5009 0.2892 0.0000   x coordinate   0.5784
     high-symmetry point:  0.3339 0.5784 0.0000   x coordinate   0.9124
     high-symmetry point:  0.0000 0.0000 0.0000   x coordinate   1.5802
     high-symmetry point:  0.0000 0.0000 0.1483   x coordinate   1.7285
     high-symmetry point:  0.5009 0.2892 0.1483   x coordinate   2.3069
     high-symmetry point:  0.3339 0.5784 0.1483   x coordinate   2.6409
     high-symmetry point:  0.0000 0.0000 0.1483   x coordinate   3.3087

     Plottable bands (eV) written to file bands_graphite.gnu
     Bands written to file bands_graphite

 **************************************************************************

                    xk=(   0.00000,   0.00000,   0.00000  )

     point group D_2h (mmm) 
     there are  8 classes
     the character table:

       E     C2    C2'   C2''  i     s_v   s_v'  s_v''
A_g    1.00  1.00  1.00  1.00  1.00  1.00  1.00  1.00
B_1g   1.00  1.00 -1.00 -1.00  1.00  1.00 -1.00 -1.00
B_2g   1.00 -1.00  1.00 -1.00  1.00 -1.00  1.00 -1.00
B_3g   1.00 -1.00 -1.00  1.00  1.00 -1.00 -1.00  1.00
A_u    1.00  1.00  1.00  1.00 -1.00 -1.00 -1.00 -1.00
B_1u   1.00  1.00 -1.00 -1.00 -1.00 -1.00  1.00  1.00
B_2u   1.00 -1.00  1.00 -1.00 -1.00  1.00 -1.00  1.00
B_3u   1.00 -1.00 -1.00  1.00 -1.00  1.00  1.00 -1.00

     the symmetry operations in each class and the name of the first element:

     E        1
                                                                 
     C2       2
                                                                 
     C2'      4
                                                                 
     C2''     3
                                                                 
     i        5
                                                                 
     s_v      6
                                                                 
     s_v'     8
                                                                 
     s_v''    7
                                                                 

     Band symmetry, D_2h (mmm)  point group:

     e(  1 -  1) =    -14.70802  eV     1   --> A_g            
     e(  2 -  2) =    -14.66300  eV     1   --> B_3u           
     e(  3 -  3) =     -3.06193  eV     1   --> B_2g           
     e(  4 -  4) =     -2.49999  eV     1   --> B_1u           
     e(  5 -  5) =      1.76951  eV     1   --> B_2u           
     e(  6 -  6) =      1.77099  eV     1   --> B_1g           
     e(  7 -  7) =      1.77115  eV     1   --> B_3u           
     e(  8 -  8) =      1.77263  eV     1   --> A_g            
     e(  9 -  9) =      7.98882  eV     1   --> A_g            
     e( 10 - 10) =     11.50824  eV     1   --> B_2g           
     e( 11 - 11) =     13.16986  eV     1   -->   ?
     e( 12 - 12) =     13.17256  eV     1   -->   ?

 **************************************************************************

 **************************************************************************

                    xk=(   0.00501,   0.00289,   0.00000  )

     point group C_s (m)    
     there are  2 classes
     the character table:

       E     s    
A'     1.00  1.00
A''    1.00 -1.00

     the symmetry operations in each class and the name of the first element:

     E        1
                                                                 
     s        2
                                                                 

     Band symmetry, C_s (m)     point group:

     e(  1 -  1) =    -14.70747  eV     1   --> A'             
     e(  2 -  2) =    -14.66241  eV     1   --> A'             
     e(  3 -  3) =     -3.06122  eV     1   --> A''            
     e(  4 -  4) =     -2.49929  eV     1   --> A''            
     e(  5 -  5) =      1.76722  eV     1   --> A'             
     e(  6 -  6) =      1.76871  eV     1   --> A'             
     e(  7 -  7) =      1.76966  eV     1   --> A'             
     e(  8 -  8) =      1.77113  eV     1   --> A'             
     e(  9 -  9) =      7.98958  eV     1   --> A'             
     e( 10 - 10) =     11.50895  eV     1   --> A''            
     e( 11 - 11) =     13.17102  eV     1   --> A'             
     e( 12 - 12) =     13.17323  eV     1   --> A'             

 **************************************************************************

 **************************************************************************

                    xk=(   0.01002,   0.00578,   0.00000  )

     Band symmetry, C_s (m)     point group:

     e(  1 -  1) =    -14.70569  eV     1   --> A'             
     e(  2 -  2) =    -14.66064  eV     1   --> A'             
     e(  3 -  3) =     -3.05907  eV     1   --> A''            
     e(  4 -  4) =     -2.49720  eV     1   --> A''            
     e(  5 -  5) =      1.75996  eV     1   --> A'             
     e(  6 -  6) =      1.76147  eV     1   --> A'             
     e(  7 -  7) =      1.76559  eV     1   --> A'             
     e(  8 -  8) =      1.76708  eV     1   --> A'             
     e(  9 -  9) =      7.99188  eV     1   --> A'             
     e( 10 - 10) =     11.51107  eV     1   --> A''            
     e( 11 - 11) =     13.17237  eV     1   --> A'             
     e( 12 - 12) =     13.17997  eV     1   --> A'             

 **************************************************************************

 **************************************************************************

                    xk=(   0.01503,   0.00868,   0.00000  )

     Band symmetry, C_s (m)     point group:

     e(  1 -  1) =    -14.70274  eV     1   --> A'             
     e(  2 -  2) =    -14.65770  eV     1   --> A'             
     e(  3 -  3) =     -3.05550  eV     1   --> A''            
     e(  4 -  4) =     -2.49371  eV     1   --> A''            
     e(  5 -  5) =      1.74770  eV     1   --> A'             
     e(  6 -  6) =      1.74924  eV     1   --> A'             
     e(  7 -  7) =      1.75900  eV     1   --> A'             
     e(  8 -  8) =      1.76052  eV     1   --> A'             
     e(  9 -  9) =      7.99572  eV     1   --> A'             
     e( 10 - 10) =     11.51461  eV     1   --> A''            
     e( 11 - 11) =     13.17400  eV     1   --> A'             
     e( 12 - 12) =     13.19007  eV     1   --> A'             

 **************************************************************************

 **************************************************************************

                    xk=(   0.02004,   0.01157,   0.00000  )

     Band symmetry, C_s (m)     point group:

     e(  1 -  1) =    -14.69858  eV     1   --> A'             
     e(  2 -  2) =    -14.65357  eV     1   --> A'             
     e(  3 -  3) =     -3.05049  eV     1   --> A''            
     e(  4 -  4) =     -2.48882  eV     1   --> A''            
     e(  5 -  5) =      1.73052  eV     1   --> A'             
     e(  6 -  6) =      1.73212  eV     1   --> A'             
     e(  7 -  7) =      1.74986  eV     1   --> A'             
     e(  8 -  8) =      1.75141  eV     1   --> A'             
     e(  9 -  9) =      8.00109  eV     1   --> A'             
     e( 10 - 10) =     11.51956  eV     1   --> A''            
     e( 11 - 11) =     13.17618  eV     1   --> A'             
     e( 12 - 12) =     13.18417  eV     1   --> A'             

 **************************************************************************

 **************************************************************************

                    xk=(   0.02505,   0.01446,   0.00000  )

     Band symmetry, C_s (m)     point group:

     e(  1 -  1) =    -14.69326  eV     1   --> A'             
     e(  2 -  2) =    -14.64827  eV     1   --> A'             
     e(  3 -  3) =     -3.04405  eV     1   --> A''            
     e(  4 -  4) =     -2.48254  eV     1   --> A''            
     e(  5 -  5) =      1.70851  eV     1   --> A'             
     e(  6 -  6) =      1.71017  eV     1   --> A'             
     e(  7 -  7) =      1.73817  eV     1   --> A'             
     e(  8 -  8) =      1.73977  eV     1   --> A'             
     e(  9 -  9) =      8.00800  eV     1   --> A'             
     e( 10 - 10) =     11.52593  eV     1   --> A''            
     e( 11 - 11) =     13.17893  eV     1   --> A'             
     e( 12 - 12) =     13.18718  eV     1   --> A'             

 **************************************************************************

 **************************************************************************

                    xk=(   0.03006,   0.01735,   0.00000  )

     Band symmetry, C_s (m)     point group:

     e(  1 -  1) =    -14.68676  eV     1   --> A'             
     e(  2 -  2) =    -14.64179  eV     1   --> A'             
     e(  3 -  3) =     -3.03619  eV     1   --> A''            
     e(  4 -  4) =     -2.47486  eV     1   --> A''            
     e(  5 -  5) =      1.68169  eV     1   --> A'             
     e(  6 -  6) =      1.68342  eV     1   --> A'             
     e(  7 -  7) =      1.72397  eV     1   --> A'             
     e(  8 -  8) =      1.72562  eV     1   --> A'             
     e(  9 -  9) =      8.01644  eV     1   --> A'             
     e( 10 - 10) =     11.53371  eV     1   --> A''            
     e( 11 - 11) =     13.18211  eV     1   --> A'             
     e( 12 - 12) =     13.19125  eV     1   --> A'             

 **************************************************************************

 **************************************************************************

                    xk=(   0.03507,   0.02025,   0.00000  )

     Band symmetry, C_s (m)     point group:

     e(  1 -  1) =    -14.67903  eV     1   --> A'             
     e(  2 -  2) =    -14.63413  eV     1   --> A'             
     e(  3 -  3) =     -3.02689  eV     1   --> A''            
     e(  4 -  4) =     -2.46578  eV     1   --> A''            
     e(  5 -  5) =      1.65014  eV     1   --> A'             
     e(  6 -  6) =      1.65197  eV     1   --> A'             
     e(  7 -  7) =      1.70730  eV     1   --> A'             
     e(  8 -  8) =      1.70901  eV     1   --> A'             
     e(  9 -  9) =      8.02642  eV     1   --> A'             
     e( 10 - 10) =     11.54290  eV     1   --> A''            
     e( 11 - 11) =     13.18571  eV     1   --> A'             
     e( 12 - 12) =     13.19585  eV     1   --> A'             

 **************************************************************************

 **************************************************************************

                    xk=(   0.04008,   0.02314,   0.00000  )

     Band symmetry, C_s (m)     point group:

     e(  1 -  1) =    -14.67017  eV     1   --> A'             
     e(  2 -  2) =    -14.62530  eV     1   --> A'             
     e(  3 -  3) =     -3.01617  eV     1   --> A''            
     e(  4 -  4) =     -2.45531  eV     1   --> A''            
     e(  5 -  5) =      1.61393  eV     1   --> A'             
     e(  6 -  6) =      1.61586  eV     1   --> A'             
     e(  7 -  7) =      1.68821  eV     1   --> A'             
     e(  8 -  8) =      1.68999  eV     1   --> A'             
     e(  9 -  9) =      8.03793  eV     1   --> A'             
     e( 10 - 10) =     11.55349  eV     1   --> A''            
     e( 11 - 11) =     13.18964  eV     1   --> A'             
     e( 12 - 12) =     13.20092  eV     1   --> A'             

 **************************************************************************

 **************************************************************************

                    xk=(   0.04509,   0.02603,   0.00000  )

     Band symmetry, C_s (m)     point group:

     e(  1 -  1) =    -14.66012  eV     1   --> A'             
     e(  2 -  2) =    -14.61529  eV     1   --> A'             
     e(  3 -  3) =     -3.00402  eV     1   --> A''            
     e(  4 -  4) =     -2.44346  eV     1   --> A''            
     e(  5 -  5) =      1.57316  eV     1   --> A'             
     e(  6 -  6) =      1.57519  eV     1   --> A'             
     e(  7 -  7) =      1.66675  eV     1   --> A'             
     e(  8 -  8) =      1.66860  eV     1   --> A'             
     e(  9 -  9) =      8.05097  eV     1   --> A'             
     e( 10 - 10) =     11.56550  eV     1   --> A''            
     e( 11 - 11) =     13.19383  eV     1   --> A'             
     e( 12 - 12) =     13.20639  eV     1   --> A'             

 **************************************************************************

 **************************************************************************

                    xk=(   0.05009,   0.02892,   0.00000  )

     Band symmetry, C_s (m)     point group:

     e(  1 -  1) =    -14.64889  eV     1   --> A'             
     e(  2 -  2) =    -14.60410  eV     1   --> A'             
     e(  3 -  3) =     -2.99045  eV     1   --> A''            
     e(  4 -  4) =     -2.43021  eV     1   --> A''            
     e(  5 -  5) =      1.52791  eV     1   --> A'             
     e(  6 -  6) =      1.53004  eV     1   --> A'             
     e(  7 -  7) =      1.64301  eV     1   --> A'             
     e(  8 -  8) =      1.64494  eV     1   --> A'             
     e(  9 -  9) =      8.06556  eV     1   --> A'             
     e( 10 - 10) =     11.57891  eV     1   --> A''            
     e( 11 - 11) =     13.19820  eV     1   --> A'             
     e( 12 - 12) =     13.21215  eV     1   --> A'             

 **************************************************************************

 **************************************************************************

                    xk=(   0.05510,   0.03181,   0.00000  )

     Band symmetry, C_s (m)     point group:

     e(  1 -  1) =    -14.63649  eV     1   --> A'             
     e(  2 -  2) =    -14.59174  eV     1   --> A'             
     e(  3 -  3) =     -2.97545  eV     1   --> A''            
     e(  4 -  4) =     -2.41557  eV     1   --> A''            
     e(  5 -  5) =      1.47827  eV     1   --> A'             
     e(  6 -  6) =      1.48052  eV     1   --> A'             
     e(  7 -  7) =      1.61703  eV     1   --> A'             
     e(  8 -  8) =      1.61904  eV     1   --> A'             
     e(  9 -  9) =      8.08168  eV     1   --> A'             
     e( 10 - 10) =     11.59372  eV     1   --> A''            
     e( 11 - 11) =     13.20262  eV     1   --> A'             
     e( 12 - 12) =     13.21809  eV     1   --> A'             

 **************************************************************************

 **************************************************************************

                    xk=(   0.06011,   0.03471,   0.00000  )

     Band symmetry, C_s (m)     point group:

     e(  1 -  1) =    -14.62291  eV     1   --> A'             
     e(  2 -  2) =    -14.57821  eV     1   --> A'             
     e(  3 -  3) =     -2.95902  eV     1   --> A''            
     e(  4 -  4) =     -2.39954  eV     1   --> A''            
     e(  5 -  5) =      1.42431  eV     1   --> A'             
     e(  6 -  6) =      1.42673  eV     1   --> A'             
     e(  7 -  7) =      1.58890  eV     1   --> A'             
     e(  8 -  8) =      1.59098  eV     1   --> A'             
     e(  9 -  9) =      8.09933  eV     1   --> A'             
     e( 10 - 10) =     11.60994  eV     1   --> A''            
     e( 11 - 11) =     13.20700  eV     1   --> A'             
     e( 12 - 12) =     13.22410  eV     1   --> A'             

 **************************************************************************

 **************************************************************************

                    xk=(   0.06512,   0.03760,   0.00000  )

     Band symmetry, C_s (m)     point group:

     e(  1 -  1) =    -14.60815  eV     1   --> A'             
     e(  2 -  2) =    -14.56350  eV     1   --> A'             
     e(  3 -  3) =     -2.94118  eV     1   --> A''            
     e(  4 -  4) =     -2.38212  eV     1   --> A''            
     e(  5 -  5) =      1.36621  eV     1   --> A'             
     e(  6 -  6) =      1.36872  eV     1   --> A'             
     e(  7 -  7) =      1.55868  eV     1   --> A'             
     e(  8 -  8) =      1.56086  eV     1   --> A'             
     e(  9 -  9) =      8.11853  eV     1   --> A'             
     e( 10 - 10) =     11.62755  eV     1   --> A''            
     e( 11 - 11) =     13.21125  eV     1   --> A'             
     e( 12 - 12) =     13.23005  eV     1   --> A'             

 **************************************************************************

 **************************************************************************

                    xk=(   0.07013,   0.04049,   0.00000  )

     Band symmetry, C_s (m)     point group:

     e(  1 -  1) =    -14.59221  eV     1   --> A'             
     e(  2 -  2) =    -14.54761  eV     1   --> A'             
     e(  3 -  3) =     -2.92191  eV     1   --> A''            
     e(  4 -  4) =     -2.36332  eV     1   --> A''            
     e(  5 -  5) =      1.30406  eV     1   --> A'             
     e(  6 -  6) =      1.30671  eV     1   --> A'             
     e(  7 -  7) =      1.52648  eV     1   --> A'             
     e(  8 -  8) =      1.52874  eV     1   --> A'             
     e(  9 -  9) =      8.13926  eV     1   --> A'             
     e( 10 - 10) =     11.64655  eV     1   --> A''            
     e( 11 - 11) =     13.21530  eV     1   --> A'             
     e( 12 - 12) =     13.23590  eV     1   --> A'             

 **************************************************************************

 **************************************************************************

                    xk=(   0.07514,   0.04338,   0.00000  )

     Band symmetry, C_s (m)     point group:

     e(  1 -  1) =    -14.57509  eV     1   --> A'             
     e(  2 -  2) =    -14.53055  eV     1   --> A'             
     e(  3 -  3) =     -2.90122  eV     1   --> A''            
     e(  4 -  4) =     -2.34314  eV     1   --> A''            
     e(  5 -  5) =      1.23796  eV     1   --> A'             
     e(  6 -  6) =      1.24078  eV     1   --> A'             
     e(  7 -  7) =      1.49237  eV     1   --> A'             
     e(  8 -  8) =      1.49468  eV     1   --> A'             
     e(  9 -  9) =      8.16153  eV     1   --> A'             
     e( 10 - 10) =     11.66694  eV     1   --> A''            
     e( 11 - 11) =     13.21903  eV     1   --> A'             
     e( 12 - 12) =     13.24149  eV     1   --> A'             

 **************************************************************************

 **************************************************************************

                    xk=(   0.08015,   0.04628,   0.00000  )

     Band symmetry, C_s (m)     point group:

     e(  1 -  1) =    -14.55680  eV     1   --> A'             
     e(  2 -  2) =    -14.51232  eV     1   --> A'             
     e(  3 -  3) =     -2.87912  eV     1   --> A''            
     e(  4 -  4) =     -2.32157  eV     1   --> A''            
     e(  5 -  5) =      1.16806  eV     1   --> A'             
     e(  6 -  6) =      1.17104  eV     1   --> A'             
     e(  7 -  7) =      1.45645  eV     1   --> A'             
     e(  8 -  8) =      1.45884  eV     1   --> A'             
     e(  9 -  9) =      8.18534  eV     1   --> A'             
     e( 10 - 10) =     11.68872  eV     1   --> A''            
     e( 11 - 11) =     13.22235  eV     1   --> A'             
     e( 12 - 12) =     13.24673  eV     1   --> A'             

 **************************************************************************

 **************************************************************************

                    xk=(   0.08516,   0.04917,   0.00000  )

     Band symmetry, C_s (m)     point group:

     e(  1 -  1) =    -14.53733  eV     1   --> A'             
     e(  2 -  2) =    -14.49292  eV     1   --> A'             
     e(  3 -  3) =     -2.85561  eV     1   --> A''            
     e(  4 -  4) =     -2.29863  eV     1   --> A''            
     e(  5 -  5) =      1.09448  eV     1   --> A'             
     e(  6 -  6) =      1.09758  eV     1   --> A'             
     e(  7 -  7) =      1.41881  eV     1   --> A'             
     e(  8 -  8) =      1.42128  eV     1   --> A'             
     e(  9 -  9) =      8.21069  eV     1   --> A'             
     e( 10 - 10) =     11.71187  eV     1   --> A''            
     e( 11 - 11) =     13.22516  eV     1   --> A'             
     e( 12 - 12) =     13.25149  eV     1   --> A'             

 **************************************************************************

 **************************************************************************

                    xk=(   0.09017,   0.05206,   0.00000  )

     Band symmetry, C_s (m)     point group:

     e(  1 -  1) =    -14.51667  eV     1   --> A'             
     e(  2 -  2) =    -14.47234  eV     1   --> A'             
     e(  3 -  3) =     -2.83067  eV     1   --> A''            
     e(  4 -  4) =     -2.27431  eV     1   --> A''            
     e(  5 -  5) =      1.01729  eV     1   --> A'             
     e(  6 -  6) =      1.02062  eV     1   --> A'             
     e(  7 -  7) =      1.37952  eV     1   --> A'             
     e(  8 -  8) =      1.38207  eV     1   --> A'             
     e(  9 -  9) =      8.23758  eV     1   --> A'             
     e( 10 - 10) =     11.73640  eV     1   --> A''            
     e( 11 - 11) =     13.22737  eV     1   --> A'             
     e( 12 - 12) =     13.25574  eV     1   --> A'             

 **************************************************************************

 **************************************************************************

                    xk=(   0.09518,   0.05495,   0.00000  )

     Band symmetry, C_s (m)     point group:

     e(  1 -  1) =    -14.49485  eV     1   --> A'             
     e(  2 -  2) =    -14.45060  eV     1   --> A'             
     e(  3 -  3) =     -2.80433  eV     1   --> A''            
     e(  4 -  4) =     -2.24861  eV     1   --> A''            
     e(  5 -  5) =      0.93672  eV     1   --> A'             
     e(  6 -  6) =      0.94023  eV     1   --> A'             
     e(  7 -  7) =      1.33869  eV     1   --> A'             
     e(  8 -  8) =      1.34132  eV     1   --> A'             
     e(  9 -  9) =      8.26600  eV     1   --> A'             
     e( 10 - 10) =     11.76229  eV     1   --> A''            
     e( 11 - 11) =     13.22895  eV     1   --> A'             
     e( 12 - 12) =     13.25934  eV     1   --> A'             

 **************************************************************************

 **************************************************************************

                    xk=(   0.10019,   0.05784,   0.00000  )

     Band symmetry, C_s (m)     point group:

     e(  1 -  1) =    -14.47185  eV     1   --> A'             
     e(  2 -  2) =    -14.42768  eV     1   --> A'             
     e(  3 -  3) =     -2.77658  eV     1   --> A''            
     e(  4 -  4) =     -2.22154  eV     1   --> A''            
     e(  5 -  5) =      0.85286  eV     1   --> A'             
     e(  6 -  6) =      0.85656  eV     1   --> A'             
     e(  7 -  7) =      1.29641  eV     1   --> A'             
     e(  8 -  8) =      1.29912  eV     1   --> A'             
     e(  9 -  9) =      8.29597  eV     1   --> A'             
     e( 10 - 10) =     11.78954  eV     1   --> A''            
     e( 11 - 11) =     13.22979  eV     1   --> A'             
     e( 12 - 12) =     13.26221  eV     1   --> A'             

 **************************************************************************

 **************************************************************************

                    xk=(   0.10520,   0.06074,   0.00000  )

     Band symmetry, C_s (m)     point group:

     e(  1 -  1) =    -14.44768  eV     1   --> A'             
     e(  2 -  2) =    -14.40360  eV     1   --> A'             
     e(  3 -  3) =     -2.74743  eV     1   --> A''            
     e(  4 -  4) =     -2.19311  eV     1   --> A''            
     e(  5 -  5) =      0.76582  eV     1   --> A'             
     e(  6 -  6) =      0.76972  eV     1   --> A'             
     e(  7 -  7) =      1.25274  eV     1   --> A'             
     e(  8 -  8) =      1.25556  eV     1   --> A'             
     e(  9 -  9) =      8.32747  eV     1   --> A'             
     e( 10 - 10) =     11.81814  eV     1   --> A''            
     e( 11 - 11) =     13.22984  eV     1   --> A'             
     e( 12 - 12) =     13.26429  eV     1   --> A'             

 **************************************************************************

 **************************************************************************

                    xk=(   0.11021,   0.06363,   0.00000  )

     Band symmetry, C_s (m)     point group:

     e(  1 -  1) =    -14.42234  eV     1   --> A'             
     e(  2 -  2) =    -14.37834  eV     1   --> A'             
     e(  3 -  3) =     -2.71687  eV     1   --> A''            
     e(  4 -  4) =     -2.16331  eV     1   --> A''            
     e(  5 -  5) =      0.67576  eV     1   --> A'             
     e(  6 -  6) =      0.67985  eV     1   --> A'             
     e(  7 -  7) =      1.20783  eV     1   --> A'             
     e(  8 -  8) =      1.21074  eV     1   --> A'             
     e(  9 -  9) =      8.36051  eV     1   --> A'             
     e( 10 - 10) =     11.84808  eV     1   --> A''            
     e( 11 - 11) =     13.22905  eV     1   --> A'             
     e( 12 - 12) =     13.26552  eV     1   --> A'             

 **************************************************************************

 **************************************************************************

                    xk=(   0.11522,   0.06652,   0.00000  )

     Band symmetry, C_s (m)     point group:

     e(  1 -  1) =    -14.39581  eV     1   --> A'             
     e(  2 -  2) =    -14.35192  eV     1   --> A'             
     e(  3 -  3) =     -2.68491  eV     1   --> A''            
     e(  4 -  4) =     -2.13214  eV     1   --> A''            
     e(  5 -  5) =      0.58279  eV     1   --> A'             
     e(  6 -  6) =      0.58709  eV     1   --> A'             
     e(  7 -  7) =      1.16176  eV     1   --> A'             
     e(  8 -  8) =      1.16475  eV     1   --> A'             
     e(  9 -  9) =      8.39509  eV     1   --> A'             
     e( 10 - 10) =     11.87935  eV     1   --> A''            
     e( 11 - 11) =     13.22740  eV     1   --> A'             
     e( 12 - 12) =     13.26592  eV     1   --> A'             

 **************************************************************************

 **************************************************************************

                    xk=(   0.12023,   0.06941,   0.00000  )

     Band symmetry, C_s (m)     point group:

     e(  1 -  1) =    -14.36813  eV     1   --> A'             
     e(  2 -  2) =    -14.32433  eV     1   --> A'             
     e(  3 -  3) =     -2.65156  eV     1   --> A''            
     e(  4 -  4) =     -2.09963  eV     1   --> A''            
     e(  5 -  5) =      0.48704  eV     1   --> A'             
     e(  6 -  6) =      0.49155  eV     1   --> A'             
     e(  7 -  7) =      1.11459  eV     1   --> A'             
     e(  8 -  8) =      1.11765  eV     1   --> A'             
     e(  9 -  9) =      8.43121  eV     1   --> A'             
     e( 10 - 10) =     11.91193  eV     1   --> A''            
     e( 11 - 11) =     13.22481  eV     1   --> A'             
     e( 12 - 12) =     13.26527  eV     1   --> A'             

 **************************************************************************

 **************************************************************************

                    xk=(   0.12524,   0.07231,   0.00000  )

     Band symmetry, C_s (m)     point group:

     e(  1 -  1) =    -14.33928  eV     1   --> A'             
     e(  2 -  2) =    -14.29558  eV     1   --> A'             
     e(  3 -  3) =     -2.61681  eV     1   --> A''            
     e(  4 -  4) =     -2.06575  eV     1   --> A''            
     e(  5 -  5) =      0.38864  eV     1   --> A'             
     e(  6 -  6) =      0.39337  eV     1   --> A'             
     e(  7 -  7) =      1.06643  eV     1   --> A'             
     e(  8 -  8) =      1.06956  eV     1   --> A'             
     e(  9 -  9) =      8.46886  eV     1   --> A'             
     e( 10 - 10) =     11.94581  eV     1   --> A''            
     e( 11 - 11) =     13.22127  eV     1   --> A'             
     e( 12 - 12) =     13.26364  eV     1   --> A'             

 **************************************************************************

 **************************************************************************

                    xk=(   0.13025,   0.07520,   0.00000  )

     Band symmetry, C_s (m)     point group:

     e(  1 -  1) =    -14.30926  eV     1   --> A'             
     e(  2 -  2) =    -14.26566  eV     1   --> A'             
     e(  3 -  3) =     -2.58067  eV     1   --> A''            
     e(  4 -  4) =     -2.03052  eV     1   --> A''            
     e(  5 -  5) =      0.28772  eV     1   --> A'             
     e(  6 -  6) =      0.29266  eV     1   --> A'             
     e(  7 -  7) =      1.01736  eV     1   --> A'             
     e(  8 -  8) =      1.02057  eV     1   --> A'             
     e(  9 -  9) =      8.50806  eV     1   --> A'             
     e( 10 - 10) =     11.98098  eV     1   --> A''            
     e( 11 - 11) =     13.21676  eV     1   --> A'             
     e( 12 - 12) =     13.26100  eV     1   --> A'             

 **************************************************************************

 **************************************************************************

                    xk=(   0.13526,   0.07809,   0.00000  )

     Band symmetry, C_s (m)     point group:

     e(  1 -  1) =    -14.27808  eV     1   --> A'             
     e(  2 -  2) =    -14.23458  eV     1   --> A'             
     e(  3 -  3) =     -2.54314  eV     1   --> A''            
     e(  4 -  4) =     -1.99395  eV     1   --> A''            
     e(  5 -  5) =      0.18439  eV     1   --> A'             
     e(  6 -  6) =      0.18950  eV     1   --> A'             
     e(  7 -  7) =      0.96746  eV     1   --> A'             
     e(  8 -  8) =      0.97074  eV     1   --> A'             
     e(  9 -  9) =      8.54878  eV     1   --> A'             
     e( 10 - 10) =     12.01739  eV     1   --> A''            
     e( 11 - 11) =     13.21127  eV     1   --> A'             
     e( 12 - 12) =     13.25730  eV     1   --> A'             

 **************************************************************************

 **************************************************************************

                    xk=(   0.14026,   0.08098,   0.00000  )

     Band symmetry, C_s (m)     point group:

     e(  1 -  1) =    -14.24572  eV     1   --> A'             
     e(  2 -  2) =    -14.20234  eV     1   --> A'             
     e(  3 -  3) =     -2.50423  eV     1   --> A''            
     e(  4 -  4) =     -1.95604  eV     1   --> A''            
     e(  5 -  5) =      0.07878  eV     1   --> A'             
     e(  6 -  6) =      0.08412  eV     1   --> A'             
     e(  7 -  7) =      0.91683  eV     1   --> A'             
     e(  8 -  8) =      0.92018  eV     1   --> A'             
     e(  9 -  9) =      8.59105  eV     1   --> A'             
     e( 10 - 10) =     12.05504  eV     1   --> A''            
     e( 11 - 11) =     13.20482  eV     1   --> A'             
     e( 12 - 12) =     13.25259  eV     1   --> A'             

 **************************************************************************

 **************************************************************************

                    xk=(   0.14527,   0.08387,   0.00000  )

     Band symmetry, C_s (m)     point group:

     e(  1 -  1) =    -14.21221  eV     1   --> A'             
     e(  2 -  2) =    -14.16894  eV     1   --> A'             
     e(  3 -  3) =     -2.46395  eV     1   --> A''            
     e(  4 -  4) =     -1.91678  eV     1   --> A''            
     e(  5 -  5) =     -0.02900  eV     1   --> A'             
     e(  6 -  6) =     -0.02343  eV     1   --> A'             
     e(  7 -  7) =      0.86554  eV     1   --> A'             
     e(  8 -  8) =      0.86895  eV     1   --> A'             
     e(  9 -  9) =      8.63485  eV     1   --> A'             
     e( 10 - 10) =     12.09388  eV     1   --> A''            
     e( 11 - 11) =     13.19739  eV     1   --> A'             
     e( 12 - 12) =     13.24685  eV     1   --> A'             

 **************************************************************************

 **************************************************************************

                    xk=(   0.15028,   0.08677,   0.00000  )

     Band symmetry, C_s (m)     point group:

     e(  1 -  1) =    -14.17753  eV     1   --> A'             
     e(  2 -  2) =    -14.13439  eV     1   --> A'             
     e(  3 -  3) =     -2.42229  eV     1   --> A''            
     e(  4 -  4) =     -1.87620  eV     1   --> A''            
     e(  5 -  5) =     -0.13883  eV     1   --> A'             
     e(  6 -  6) =     -0.13303  eV     1   --> A'             
     e(  7 -  7) =      0.81366  eV     1   --> A'             
     e(  8 -  8) =      0.81715  eV     1   --> A'             
     e(  9 -  9) =      8.68018  eV     1   --> A'             
     e( 10 - 10) =     12.13388  eV     1   --> A''            
     e( 11 - 11) =     13.18900  eV     1   --> A'             
     e( 12 - 12) =     13.24008  eV     1   --> A'             

 **************************************************************************

 **************************************************************************

                    xk=(   0.15529,   0.08966,   0.00000  )

     Band symmetry, C_s (m)     point group:

     e(  1 -  1) =    -14.14169  eV     1   --> A'             
     e(  2 -  2) =    -14.09867  eV     1   --> A'             
     e(  3 -  3) =     -2.37926  eV     1   --> A''            
     e(  4 -  4) =     -1.83429  eV     1   --> A''            
     e(  5 -  5) =     -0.25061  eV     1   --> A'             
     e(  6 -  6) =     -0.24457  eV     1   --> A'             
     e(  7 -  7) =      0.76129  eV     1   --> A'             
     e(  8 -  8) =      0.76481  eV     1   --> A'             
     e(  9 -  9) =      8.72705  eV     1   --> A'             
     e( 10 - 10) =     12.17498  eV     1   --> A''            
     e( 11 - 11) =     13.17967  eV     1   --> A'             
     e( 12 - 12) =     13.23228  eV     1   --> A'             

 **************************************************************************

 **************************************************************************

                    xk=(   0.16030,   0.09255,   0.00000  )

     Band symmetry, C_s (m)     point group:

     e(  1 -  1) =    -14.10469  eV     1   --> A'             
     e(  2 -  2) =    -14.06180  eV     1   --> A'             
     e(  3 -  3) =     -2.33486  eV     1   --> A''            
     e(  4 -  4) =     -1.79105  eV     1   --> A''            
     e(  5 -  5) =     -0.36421  eV     1   --> A'             
     e(  6 -  6) =     -0.35793  eV     1   --> A'             
     e(  7 -  7) =      0.70849  eV     1   --> A'             
     e(  8 -  8) =      0.71207  eV     1   --> A'             
     e(  9 -  9) =      8.77545  eV     1   --> A'             
     e( 10 - 10) =     12.21712  eV     1   --> A''            
     e( 11 - 11) =     13.16942  eV     1   --> A'             
     e( 12 - 12) =     13.22351  eV     1   --> A'             

 **************************************************************************

 **************************************************************************

                    xk=(   0.16531,   0.09544,   0.00000  )

     Band symmetry, C_s (m)     point group:

     e(  1 -  1) =    -14.06653  eV     1   --> A'             
     e(  2 -  2) =    -14.02378  eV     1   --> A'             
     e(  3 -  3) =     -2.28910  eV     1   --> A''            
     e(  4 -  4) =     -1.74650  eV     1   --> A''            
     e(  5 -  5) =     -0.47954  eV     1   --> A'             
     e(  6 -  6) =     -0.47301  eV     1   --> A'             
     e(  7 -  7) =      0.65534  eV     1   --> A'             
     e(  8 -  8) =      0.65898  eV     1   --> A'             
     e(  9 -  9) =      8.82538  eV     1   --> A'             
     e( 10 - 10) =     12.26019  eV     1   --> A''            
     e( 11 - 11) =     13.15828  eV     1   --> A'             
     e( 12 - 12) =     13.21378  eV     1   --> A'             

 **************************************************************************

 **************************************************************************

                    xk=(   0.17032,   0.09834,   0.00000  )

     Band symmetry, C_s (m)     point group:

     e(  1 -  1) =    -14.02722  eV     1   --> A'             
     e(  2 -  2) =    -13.98460  eV     1   --> A'             
     e(  3 -  3) =     -2.24199  eV     1   --> A''            
     e(  4 -  4) =     -1.70064  eV     1   --> A''            
     e(  5 -  5) =     -0.59650  eV     1   --> A'             
     e(  6 -  6) =     -0.58971  eV     1   --> A'             
     e(  7 -  7) =      0.60190  eV     1   --> A'             
     e(  8 -  8) =      0.60560  eV     1   --> A'             
     e(  9 -  9) =      8.87684  eV     1   --> A'             
     e( 10 - 10) =     12.30409  eV     1   --> A''            
     e( 11 - 11) =     13.14629  eV     1   --> A'             
     e( 12 - 12) =     13.20312  eV     1   --> A'             

 **************************************************************************

 **************************************************************************

                    xk=(   0.17533,   0.10123,   0.00000  )

     Band symmetry, C_s (m)     point group:

     e(  1 -  1) =    -13.98676  eV     1   --> A'             
     e(  2 -  2) =    -13.94427  eV     1   --> A'             
     e(  3 -  3) =     -2.19354  eV     1   --> A''            
     e(  4 -  4) =     -1.65348  eV     1   --> A''            
     e(  5 -  5) =     -0.71499  eV     1   --> A'             
     e(  6 -  6) =     -0.70794  eV     1   --> A'             
     e(  7 -  7) =      0.54824  eV     1   --> A'             
     e(  8 -  8) =      0.55195  eV     1   --> A'             
     e(  9 -  9) =      8.92983  eV     1   --> A'             
     e( 10 - 10) =     12.34865  eV     1   --> A''            
     e( 11 - 11) =     13.13345  eV     1   --> A'             
     e( 12 - 12) =     13.19149  eV     1   --> A'             

 **************************************************************************

 **************************************************************************

                    xk=(   0.18034,   0.10412,   0.00000  )

     Band symmetry, C_s (m)     point group:

     e(  1 -  1) =    -13.94514  eV     1   --> A'             
     e(  2 -  2) =    -13.90279  eV     1   --> A'             
     e(  3 -  3) =     -2.14374  eV     1   --> A''            
     e(  4 -  4) =     -1.60502  eV     1   --> A''            
     e(  5 -  5) =     -0.83490  eV     1   --> A'             
     e(  6 -  6) =     -0.82760  eV     1   --> A'             
     e(  7 -  7) =      0.49443  eV     1   --> A'             
     e(  8 -  8) =      0.49819  eV     1   --> A'             
     e(  9 -  9) =      8.98434  eV     1   --> A'             
     e( 10 - 10) =     12.39362  eV     1   --> A''            
     e( 11 - 11) =     13.11984  eV     1   --> A'             
     e( 12 - 12) =     13.17909  eV     1   --> A'             

 **************************************************************************

 **************************************************************************

                    xk=(   0.18535,   0.10701,   0.00000  )

     Band symmetry, C_s (m)     point group:

     e(  1 -  1) =    -13.90236  eV     1   --> A'             
     e(  2 -  2) =    -13.86016  eV     1   --> A'             
     e(  3 -  3) =     -2.09260  eV     1   --> A''            
     e(  4 -  4) =     -1.55527  eV     1   --> A''            
     e(  5 -  5) =     -0.95615  eV     1   --> A'             
     e(  6 -  6) =     -0.94858  eV     1   --> A'             
     e(  7 -  7) =      0.44053  eV     1   --> A'             
     e(  8 -  8) =      0.44434  eV     1   --> A'             
     e(  9 -  9) =      9.04039  eV     1   --> A'             
     e( 10 - 10) =     12.43865  eV     1   --> A''            
     e( 11 - 11) =     13.10552  eV     1   --> A'             
     e( 12 - 12) =     13.16588  eV     1   --> A'             

 **************************************************************************

 **************************************************************************

                    xk=(   0.19036,   0.10990,   0.00000  )

     Band symmetry, C_s (m)     point group:

     e(  1 -  1) =    -13.85844  eV     1   --> A'             
     e(  2 -  2) =    -13.81639  eV     1   --> A'             
     e(  3 -  3) =     -2.04013  eV     1   --> A''            
     e(  4 -  4) =     -1.50424  eV     1   --> A''            
     e(  5 -  5) =     -1.07865  eV     1   --> A'             
     e(  6 -  6) =     -1.07082  eV     1   --> A'             
     e(  7 -  7) =      0.38661  eV     1   --> A'             
     e(  8 -  8) =      0.39047  eV     1   --> A'             
     e(  9 -  9) =      9.09795  eV     1   --> A'             
     e( 10 - 10) =     12.48322  eV     1   --> A''            
     e( 11 - 11) =     13.09046  eV     1   --> A'             
     e( 12 - 12) =     13.15192  eV     1   --> A'             

 **************************************************************************

 **************************************************************************

                    xk=(   0.19537,   0.11280,   0.00000  )

     Band symmetry, C_s (m)     point group:

     e(  1 -  1) =    -13.81338  eV     1   --> A'             
     e(  2 -  2) =    -13.77148  eV     1   --> A'             
     e(  3 -  3) =     -1.98634  eV     1   --> A''            
     e(  4 -  4) =     -1.45194  eV     1   --> A''            
     e(  5 -  5) =     -1.20237  eV     1   --> A'             
     e(  6 -  6) =     -1.19421  eV     1   --> A'             
     e(  7 -  7) =      0.33271  eV     1   --> A'             
     e(  8 -  8) =      0.33662  eV     1   --> A'             
     e(  9 -  9) =      9.15704  eV     1   --> A'             
     e( 10 - 10) =     12.52645  eV     1   --> A''            
     e( 11 - 11) =     13.07473  eV     1   --> A'             
     e( 12 - 12) =     13.13722  eV     1   --> A'             

 **************************************************************************

 **************************************************************************

                    xk=(   0.20038,   0.11569,   0.00000  )

     Band symmetry, C_s (m)     point group:

     e(  1 -  1) =    -13.76717  eV     1   --> A'             
     e(  2 -  2) =    -13.72540  eV     1   --> A'             
     e(  3 -  3) =     -1.93123  eV     1   --> A''            
     e(  4 -  4) =     -1.39837  eV     1   --> A''            
     e(  5 -  5) =     -1.32711  eV     1   --> A'             
     e(  6 -  6) =     -1.31867  eV     1   --> A'             
     e(  7 -  7) =      0.27890  eV     1   --> A'             
     e(  8 -  8) =      0.28285  eV     1   --> A'             
     e(  9 -  9) =      9.21765  eV     1   --> A'             
     e( 10 - 10) =     12.56692  eV     1   --> A''            
     e( 11 - 11) =     13.05840  eV     1   --> A'             
     e( 12 - 12) =     13.12187  eV     1   --> A'             

 **************************************************************************

 **************************************************************************

                    xk=(   0.20539,   0.11858,   0.00000  )

     Band symmetry, C_s (m)     point group:

     e(  1 -  1) =    -13.71981  eV     1   --> A'             
     e(  2 -  2) =    -13.67821  eV     1   --> A'             
     e(  3 -  3) =     -1.87482  eV     1   --> A''            
     e(  4 -  4) =     -1.45284  eV     1   --> A'             
     e(  5 -  5) =     -1.44414  eV     1   --> A'             
     e(  6 -  6) =     -1.34354  eV     1   --> A''            
     e(  7 -  7) =      0.22522  eV     1   --> A'             
     e(  8 -  8) =      0.22922  eV     1   --> A'             
     e(  9 -  9) =      9.27978  eV     1   --> A'             
     e( 10 - 10) =     12.60213  eV     1   --> A''            
     e( 11 - 11) =     13.04149  eV     1   --> A'             
     e( 12 - 12) =     13.10590  eV     1   --> A'             

 **************************************************************************

 **************************************************************************

                    xk=(   0.21040,   0.12147,   0.00000  )

     Band symmetry, C_s (m)     point group:

     e(  1 -  1) =    -13.67132  eV     1   --> A'             
     e(  2 -  2) =    -13.62988  eV     1   --> A'             
     e(  3 -  3) =     -1.81711  eV     1   --> A''            
     e(  4 -  4) =     -1.57950  eV     1   --> A'             
     e(  5 -  5) =     -1.57051  eV     1   --> A'             
     e(  6 -  6) =     -1.28747  eV     1   --> A''            
     e(  7 -  7) =      0.17173  eV     1   --> A'             
     e(  8 -  8) =      0.17578  eV     1   --> A'             
     e(  9 -  9) =      9.34342  eV     1   --> A'             
     e( 10 - 10) =     12.62770  eV     1   --> A''            
     e( 11 - 11) =     13.02406  eV     1   --> A'             
     e( 12 - 12) =     13.08938  eV     1   -->   ?

 **************************************************************************

 **************************************************************************

                    xk=(   0.21541,   0.12436,   0.00000  )

     Band symmetry, C_s (m)     point group:

     e(  1 -  1) =    -13.62169  eV     1   --> A'             
     e(  2 -  2) =    -13.58043  eV     1   --> A'             
     e(  3 -  3) =     -1.75810  eV     1   --> A''            
     e(  4 -  4) =     -1.70706  eV     1   --> A'             
     e(  5 -  5) =     -1.69773  eV     1   --> A'             
     e(  6 -  6) =     -1.23016  eV     1   --> A''            
     e(  7 -  7) =      0.11848  eV     1   --> A'             
     e(  8 -  8) =      0.12257  eV     1   --> A'             
     e(  9 -  9) =      9.40858  eV     1   --> A'             
     e( 10 - 10) =     12.63613  eV     1   --> A''            
     e( 11 - 11) =     12.98382  eV     1   --> A''            
     e( 12 - 12) =     13.00614  eV     1   --> A'             

 **************************************************************************

 **************************************************************************

                    xk=(   0.22042,   0.12726,   0.00000  )

     Band symmetry, C_s (m)     point group:

     e(  1 -  1) =    -13.57091  eV     1   --> A'             
     e(  2 -  2) =    -13.52983  eV     1   --> A'             
     e(  3 -  3) =     -1.83534  eV     1   --> A'             
     e(  4 -  4) =     -1.82572  eV     1   --> A'             
     e(  5 -  5) =     -1.69782  eV     1   --> A''            
     e(  6 -  6) =     -1.17163  eV     1   --> A''            
     e(  7 -  7) =      0.06552  eV     1   --> A'             
     e(  8 -  8) =      0.06964  eV     1   --> A'             
     e(  9 -  9) =      9.47526  eV     1   --> A'             
     e( 10 - 10) =     12.61737  eV     1   --> A''            
     e( 11 - 11) =     12.85835  eV     1   --> A''            
     e( 12 - 12) =     12.98780  eV     1   --> A'             

 **************************************************************************

 **************************************************************************

                    xk=(   0.22543,   0.13015,   0.00000  )

     Band symmetry, C_s (m)     point group:

     e(  1 -  1) =    -13.51902  eV     1   --> A'             
     e(  2 -  2) =    -13.47812  eV     1   --> A'             
     e(  3 -  3) =     -1.96431  eV     1   --> A'             
     e(  4 -  4) =     -1.95441  eV     1   --> A'             
     e(  5 -  5) =     -1.63627  eV     1   --> A''            
     e(  6 -  6) =     -1.11188  eV     1   --> A''            
     e(  7 -  7) =      0.01286  eV     1   --> A'             
     e(  8 -  8) =      0.01705  eV     1   --> A'             
     e(  9 -  9) =      9.54344  eV     1   --> A'             
     e( 10 - 10) =     12.56426  eV     1   --> A''            
     e( 11 - 11) =     12.73392  eV     1   --> A''            
     e( 12 - 12) =     12.96904  eV     1   --> A'             

 **************************************************************************

 **************************************************************************

                    xk=(   0.23043,   0.13304,   0.00000  )

     Band symmetry, C_s (m)     point group:

     e(  1 -  1) =    -13.46599  eV     1   --> A'             
     e(  2 -  2) =    -13.42527  eV     1   --> A'             
     e(  3 -  3) =     -2.09392  eV     1   --> A'             
     e(  4 -  4) =     -2.08374  eV     1   --> A'             
     e(  5 -  5) =     -1.57345  eV     1   --> A''            
     e(  6 -  6) =     -1.05093  eV     1   --> A''            
     e(  7 -  7) =     -0.03941  eV     1   --> A'             
     e(  8 -  8) =     -0.03517  eV     1   --> A'             
     e(  9 -  9) =      9.61312  eV     1   --> A'             
     e( 10 - 10) =     12.47937  eV     1   --> A''            
     e( 11 - 11) =     12.61072  eV     1   --> A''            
     e( 12 - 12) =     12.94997  eV     1   --> A'             

 **************************************************************************

 **************************************************************************

                    xk=(   0.23544,   0.13593,   0.00000  )

     Band symmetry, C_s (m)     point group:

     e(  1 -  1) =    -13.41183  eV     1   --> A'             
     e(  2 -  2) =    -13.37129  eV     1   --> A'             
     e(  3 -  3) =     -2.22410  eV     1   --> A'             
     e(  4 -  4) =     -2.21363  eV     1   --> A'             
     e(  5 -  5) =     -1.50939  eV     1   --> A''            
     e(  6 -  6) =     -0.98879  eV     1   --> A''            
     e(  7 -  7) =     -0.09126  eV     1   --> A'             
     e(  8 -  8) =     -0.08698  eV     1   --> A'             
     e(  9 -  9) =      9.68431  eV     1   --> A'             
     e( 10 - 10) =     12.37221  eV     1   --> A''            
     e( 11 - 11) =     12.48788  eV     1   --> A''            
     e( 12 - 12) =     12.93059  eV     1   --> A'             

 **************************************************************************

 **************************************************************************

                    xk=(   0.24045,   0.13883,   0.00000  )

     Band symmetry, C_s (m)     point group:

     e(  1 -  1) =    -13.35655  eV     1   --> A'             
     e(  2 -  2) =    -13.31614  eV     1   --> A'             
     e(  3 -  3) =     -2.35479  eV     1   --> A'             
     e(  4 -  4) =     -2.34402  eV     1   --> A'             
     e(  5 -  5) =     -1.44405  eV     1   --> A''            
     e(  6 -  6) =     -0.92547  eV     1   --> A''            
     e(  7 -  7) =     -0.14265  eV     1   --> A'             
     e(  8 -  8) =     -0.13834  eV     1   --> A'             
     e(  9 -  9) =      9.75700  eV     1   --> A'             
     e( 10 - 10) =     12.25186  eV     1   --> A''            
     e( 11 - 11) =     12.36409  eV     1   --> A''            
     e( 12 - 12) =     12.91097  eV     1   --> A'             

 **************************************************************************

 **************************************************************************

                    xk=(   0.24546,   0.14172,   0.00000  )

     Band symmetry, C_s (m)     point group:

     e(  1 -  1) =    -13.30015  eV     1   --> A'             
     e(  2 -  2) =    -13.25996  eV     1   --> A'             
     e(  3 -  3) =     -2.48593  eV     1   --> A'             
     e(  4 -  4) =     -2.47486  eV     1   --> A'             
     e(  5 -  5) =     -1.37752  eV     1   --> A''            
     e(  6 -  6) =     -0.86099  eV     1   --> A''            
     e(  7 -  7) =     -0.19356  eV     1   --> A'             
     e(  8 -  8) =     -0.18921  eV     1   --> A'             
     e(  9 -  9) =      9.83119  eV     1   --> A'             
     e( 10 - 10) =     12.12408  eV     1   --> A''            
     e( 11 - 11) =     12.23856  eV     1   --> A''            
     e( 12 - 12) =     12.89111  eV     1   --> A'             

 **************************************************************************

 **************************************************************************

                    xk=(   0.25047,   0.14461,   0.00000  )

     Band symmetry, C_s (m)     point group:

     e(  1 -  1) =    -13.24263  eV     1   --> A'             
     e(  2 -  2) =    -13.20264  eV     1   --> A'             
     e(  3 -  3) =     -2.61745  eV     1   --> A'             
     e(  4 -  4) =     -2.60609  eV     1   --> A'             
     e(  5 -  5) =     -1.30978  eV     1   --> A''            
     e(  6 -  6) =     -0.79537  eV     1   --> A''            
     e(  7 -  7) =     -0.24394  eV     1   --> A'             
     e(  8 -  8) =     -0.23955  eV     1   --> A'             
     e(  9 -  9) =      9.90687  eV     1   --> A'             
     e( 10 - 10) =     11.99196  eV     1   --> A''            
     e( 11 - 11) =     12.11113  eV     1   --> A''            
     e( 12 - 12) =     12.87109  eV     1   --> A'             

 **************************************************************************

 **************************************************************************

                    xk=(   0.25548,   0.14750,   0.00000  )

     Band symmetry, C_s (m)     point group:

     e(  1 -  1) =    -13.18400  eV     1   --> A'             
     e(  2 -  2) =    -13.14421  eV     1   --> A'             
     e(  3 -  3) =     -2.74931  eV     1   --> A'             
     e(  4 -  4) =     -2.73765  eV     1   --> A'             
     e(  5 -  5) =     -1.24084  eV     1   --> A''            
     e(  6 -  6) =     -0.72861  eV     1   --> A''            
     e(  7 -  7) =     -0.29375  eV     1   --> A'             
     e(  8 -  8) =     -0.28932  eV     1   --> A'             
     e(  9 -  9) =      9.98403  eV     1   --> A'             
     e( 10 - 10) =     11.85710  eV     1   --> A''            
     e( 11 - 11) =     11.98197  eV     1   --> A''            
     e( 12 - 12) =     12.85094  eV     1   --> A'             

 **************************************************************************

 **************************************************************************

                    xk=(   0.26049,   0.15039,   0.00000  )

     Band symmetry, C_s (m)     point group:

     e(  1 -  1) =    -13.12425  eV     1   --> A'             
     e(  2 -  2) =    -13.08464  eV     1   --> A'             
     e(  3 -  3) =     -2.88144  eV     1   --> A'             
     e(  4 -  4) =     -2.86949  eV     1   --> A'             
     e(  5 -  5) =     -1.17071  eV     1   --> A''            
     e(  6 -  6) =     -0.66075  eV     1   --> A''            
     e(  7 -  7) =     -0.34296  eV     1   --> A'             
     e(  8 -  8) =     -0.33850  eV     1   --> A'             
     e(  9 -  9) =     10.06268  eV     1   --> A'             
     e( 10 - 10) =     11.72034  eV     1   --> A''            
     e( 11 - 11) =     11.85133  eV     1   --> A''            
     e( 12 - 12) =     12.83070  eV     1   --> A'             

 **************************************************************************

 **************************************************************************

                    xk=(   0.26550,   0.15329,   0.00000  )

     Band symmetry, C_s (m)     point group:

     e(  1 -  1) =    -13.06340  eV     1   --> A'             
     e(  2 -  2) =    -13.02400  eV     1   --> A'             
     e(  3 -  3) =     -3.01380  eV     1   --> A'             
     e(  4 -  4) =     -3.00155  eV     1   --> A'             
     e(  5 -  5) =     -1.09941  eV     1   --> A''            
     e(  6 -  6) =     -0.59178  eV     1   --> A''            
     e(  7 -  7) =     -0.39155  eV     1   --> A'             
     e(  8 -  8) =     -0.38705  eV     1   --> A'             
     e(  9 -  9) =     10.14280  eV     1   --> A'             
     e( 10 - 10) =     11.58219  eV     1   --> A''            
     e( 11 - 11) =     11.71942  eV     1   --> A''            
     e( 12 - 12) =     12.81039  eV     1   --> A'             

 **************************************************************************

 **************************************************************************

                    xk=(   0.27051,   0.15618,   0.00000  )

     Band symmetry, C_s (m)     point group:

     e(  1 -  1) =    -13.00145  eV     1   --> A'             
     e(  2 -  2) =    -12.96228  eV     1   --> A'             
     e(  3 -  3) =     -3.14634  eV     1   --> A'             
     e(  4 -  4) =     -3.13384  eV     1   --> A'             
     e(  5 -  5) =     -1.02697  eV     1   --> A''            
     e(  6 -  6) =     -0.52175  eV     1   --> A''            
     e(  7 -  7) =     -0.43947  eV     1   --> A'             
     e(  8 -  8) =     -0.43495  eV     1   --> A'             
     e(  9 -  9) =     10.22440  eV     1   --> A'             
     e( 10 - 10) =     11.44297  eV     1   --> A''            
     e( 11 - 11) =     11.58646  eV     1   --> A''            
     e( 12 - 12) =     12.79006  eV     1   --> A'             

 **************************************************************************

 **************************************************************************

                    xk=(   0.27552,   0.15907,   0.00000  )

     Band symmetry, C_s (m)     point group:

     e(  1 -  1) =    -12.93840  eV     1   --> A'             
     e(  2 -  2) =    -12.89944  eV     1   --> A'             
     e(  3 -  3) =     -3.27901  eV     1   --> A'             
     e(  4 -  4) =     -3.26621  eV     1   --> A'             
     e(  5 -  5) =     -0.95339  eV     1   --> A''            
     e(  6 -  6) =     -0.48671  eV     1   --> A'             
     e(  7 -  7) =     -0.48216  eV     1   --> A'             
     e(  8 -  8) =     -0.45066  eV     1   --> A''            
     e(  9 -  9) =     10.30746  eV     1   --> A'             
     e( 10 - 10) =     11.30293  eV     1   --> A''            
     e( 11 - 11) =     11.45262  eV     1   --> A''            
     e( 12 - 12) =     12.76974  eV     1   --> A'             

 **************************************************************************

 **************************************************************************

                    xk=(   0.28053,   0.16196,   0.00000  )

     Band symmetry, C_s (m)     point group:

     e(  1 -  1) =    -12.87426  eV     1   --> A'             
     e(  2 -  2) =    -12.83551  eV     1   --> A'             
     e(  3 -  3) =     -3.41180  eV     1   --> A'             
     e(  4 -  4) =     -3.39865  eV     1   --> A'             
     e(  5 -  5) =     -0.87870  eV     1   --> A''            
     e(  6 -  6) =     -0.53324  eV     1   --> A'             
     e(  7 -  7) =     -0.52865  eV     1   --> A'             
     e(  8 -  8) =     -0.37854  eV     1   --> A''            
     e(  9 -  9) =     10.39197  eV     1   --> A'             
     e( 10 - 10) =     11.16225  eV     1   --> A''            
     e( 11 - 11) =     11.31796  eV     1   --> A''            
     e( 12 - 12) =     12.74950  eV     1   --> A'             

 **************************************************************************

 **************************************************************************

                    xk=(   0.28554,   0.16486,   0.00000  )

     Band symmetry, C_s (m)     point group:

     e(  1 -  1) =    -12.80903  eV     1   --> A'             
     e(  2 -  2) =    -12.77049  eV     1   --> A'             
     e(  3 -  3) =     -3.54459  eV     1   --> A'             
     e(  4 -  4) =     -3.53114  eV     1   --> A'             
     e(  5 -  5) =     -0.80291  eV     1   --> A''            
     e(  6 -  6) =     -0.57902  eV     1   --> A'             
     e(  7 -  7) =     -0.57441  eV     1   --> A'             
     e(  8 -  8) =     -0.30541  eV     1   --> A''            
     e(  9 -  9) =     10.47792  eV     1   --> A'             
     e( 10 - 10) =     11.02105  eV     1   --> A''            
     e( 11 - 11) =     11.18281  eV     1   --> A''            
     e( 12 - 12) =     12.72932  eV     1   --> A'             

 **************************************************************************

 **************************************************************************

                    xk=(   0.29055,   0.16775,   0.00000  )

     Band symmetry, C_s (m)     point group:

     e(  1 -  1) =    -12.74271  eV     1   --> A'             
     e(  2 -  2) =    -12.70442  eV     1   --> A'             
     e(  3 -  3) =     -3.67737  eV     1   --> A'             
     e(  4 -  4) =     -3.66362  eV     1   --> A'             
     e(  5 -  5) =     -0.72605  eV     1   --> A''            
     e(  6 -  6) =     -0.62404  eV     1   --> A'             
     e(  7 -  7) =     -0.61940  eV     1   --> A'             
     e(  8 -  8) =     -0.23130  eV     1   --> A''            
     e(  9 -  9) =     10.56532  eV     1   --> A'             
     e( 10 - 10) =     10.87947  eV     1   --> A''            
     e( 11 - 11) =     11.04719  eV     1   --> A''            
     e( 12 - 12) =     12.70924  eV     1   --> A'             

 **************************************************************************

 **************************************************************************

                    xk=(   0.29556,   0.17064,   0.00000  )

     Band symmetry, C_s (m)     point group:

     e(  1 -  1) =    -12.67531  eV     1   --> A'             
     e(  2 -  2) =    -12.63724  eV     1   --> A'             
     e(  3 -  3) =     -3.81010  eV     1   --> A'             
     e(  4 -  4) =     -3.79604  eV     1   --> A'             
     e(  5 -  5) =     -0.66827  eV     1   --> A'             
     e(  6 -  6) =     -0.66360  eV     1   --> A'             
     e(  7 -  7) =     -0.64814  eV     1   --> A''            
     e(  8 -  8) =     -0.15624  eV     1   --> A''            
     e(  9 -  9) =     10.65413  eV     1   --> A'             
     e( 10 - 10) =     10.73761  eV     1   --> A''            
     e( 11 - 11) =     10.91121  eV     1   --> A''            
     e( 12 - 12) =     12.68931  eV     1   --> A'             

 **************************************************************************

 **************************************************************************

                    xk=(   0.30057,   0.17353,   0.00000  )

     Band symmetry, C_s (m)     point group:

     e(  1 -  1) =    -12.60683  eV     1   --> A'             
     e(  2 -  2) =    -12.56899  eV     1   --> A'             
     e(  3 -  3) =     -3.94273  eV     1   --> A'             
     e(  4 -  4) =     -3.92837  eV     1   --> A'             
     e(  5 -  5) =     -0.71168  eV     1   --> A'             
     e(  6 -  6) =     -0.70699  eV     1   --> A'             
     e(  7 -  7) =     -0.56921  eV     1   --> A''            
     e(  8 -  8) =     -0.08026  eV     1   --> A''            
     e(  9 -  9) =     10.59559  eV     1   --> A''            
     e( 10 - 10) =     10.74435  eV     1   --> A'             
     e( 11 - 11) =     10.77498  eV     1   --> A''            
     e( 12 - 12) =     12.66956  eV     1   --> A'             

 **************************************************************************

 **************************************************************************

                    xk=(   0.30558,   0.17642,   0.00000  )

     Band symmetry, C_s (m)     point group:

     e(  1 -  1) =    -12.53728  eV     1   --> A'             
     e(  2 -  2) =    -12.49967  eV     1   --> A'             
     e(  3 -  3) =     -4.07522  eV     1   --> A'             
     e(  4 -  4) =     -4.06056  eV     1   --> A'             
     e(  5 -  5) =     -0.75426  eV     1   --> A'             
     e(  6 -  6) =     -0.74954  eV     1   --> A'             
     e(  7 -  7) =     -0.48928  eV     1   --> A''            
     e(  8 -  8) =     -0.00339  eV     1   --> A''            
     e(  9 -  9) =     10.45350  eV     1   --> A''            
     e( 10 - 10) =     10.63859  eV     1   --> A''            
     e( 11 - 11) =     10.83595  eV     1   --> A'             
     e( 12 - 12) =     12.65000  eV     1   --> A'             

 **************************************************************************

 **************************************************************************

                    xk=(   0.31059,   0.17932,   0.00000  )

     Band symmetry, C_s (m)     point group:

     e(  1 -  1) =    -12.46667  eV     1   --> A'             
     e(  2 -  2) =    -12.42929  eV     1   --> A'             
     e(  3 -  3) =     -4.20755  eV     1   --> A'             
     e(  4 -  4) =     -4.19258  eV     1   --> A'             
     e(  5 -  5) =     -0.79598  eV     1   --> A'             
     e(  6 -  6) =     -0.79124  eV     1   --> A'             
     e(  7 -  7) =     -0.40839  eV     1   --> A''            
     e(  8 -  8) =      0.07433  eV     1   --> A''            
     e(  9 -  9) =     10.31143  eV     1   --> A''            
     e( 10 - 10) =     10.50214  eV     1   --> A''            
     e( 11 - 11) =     10.92892  eV     1   --> A'             
     e( 12 - 12) =     12.63069  eV     1   --> A'             

 **************************************************************************

 **************************************************************************

                    xk=(   0.31560,   0.18221,   0.00000  )

     Band symmetry, C_s (m)     point group:

     e(  1 -  1) =    -12.39503  eV     1   --> A'             
     e(  2 -  2) =    -12.35786  eV     1   --> A'             
     e(  3 -  3) =     -4.33967  eV     1   --> A'             
     e(  4 -  4) =     -4.32441  eV     1   --> A'             
     e(  5 -  5) =     -0.83683  eV     1   --> A'             
     e(  6 -  6) =     -0.83208  eV     1   --> A'             
     e(  7 -  7) =     -0.32656  eV     1   --> A''            
     e(  8 -  8) =      0.15287  eV     1   --> A''            
     e(  9 -  9) =     10.16949  eV     1   --> A''            
     e( 10 - 10) =     10.36571  eV     1   --> A''            
     e( 11 - 11) =     11.02321  eV     1   --> A'             
     e( 12 - 12) =     12.61162  eV     1   --> A'             

 **************************************************************************

 **************************************************************************

                    xk=(   0.32060,   0.18510,   0.00000  )

     Band symmetry, C_s (m)     point group:

     e(  1 -  1) =    -12.32230  eV     1   --> A'             
     e(  2 -  2) =    -12.28538  eV     1   --> A'             
     e(  3 -  3) =     -4.47154  eV     1   --> A'             
     e(  4 -  4) =     -4.45597  eV     1   --> A'             
     e(  5 -  5) =     -0.87678  eV     1   --> A'             
     e(  6 -  6) =     -0.87201  eV     1   --> A'             
     e(  7 -  7) =     -0.24383  eV     1   --> A''            
     e(  8 -  8) =      0.23219  eV     1   --> A''            
     e(  9 -  9) =     10.02777  eV     1   --> A''            
     e( 10 - 10) =     10.22940  eV     1   --> A''            
     e( 11 - 11) =     11.11881  eV     1   --> A'             
     e( 12 - 12) =     12.59285  eV     1   --> A'             

 **************************************************************************

 **************************************************************************

                    xk=(   0.32561,   0.18799,   0.00000  )

     Band symmetry, C_s (m)     point group:

     e(  1 -  1) =    -12.24854  eV     1   --> A'             
     e(  2 -  2) =    -12.21186  eV     1   --> A'             
     e(  3 -  3) =     -4.60313  eV     1   --> A'             
     e(  4 -  4) =     -4.58725  eV     1   --> A'             
     e(  5 -  5) =     -0.91582  eV     1   --> A'             
     e(  6 -  6) =     -0.91103  eV     1   --> A'             
     e(  7 -  7) =     -0.16024  eV     1   --> A''            
     e(  8 -  8) =      0.31223  eV     1   --> A''            
     e(  9 -  9) =      9.88636  eV     1   --> A''            
     e( 10 - 10) =     10.09330  eV     1   --> A''            
     e( 11 - 11) =     11.21565  eV     1   --> A'             
     e( 12 - 12) =     12.57438  eV     1   --> A'             

 **************************************************************************

 **************************************************************************

                    xk=(   0.33062,   0.19089,   0.00000  )

     Band symmetry, C_s (m)     point group:

     e(  1 -  1) =    -12.17374  eV     1   --> A'             
     e(  2 -  2) =    -12.13731  eV     1   --> A'             
     e(  3 -  3) =     -4.73440  eV     1   --> A'             
     e(  4 -  4) =     -4.71822  eV     1   --> A'             
     e(  5 -  5) =     -0.95393  eV     1   --> A'             
     e(  6 -  6) =     -0.94911  eV     1   --> A'             
     e(  7 -  7) =     -0.07582  eV     1   --> A''            
     e(  8 -  8) =      0.39296  eV     1   --> A''            
     e(  9 -  9) =      9.74536  eV     1   --> A''            
     e( 10 - 10) =      9.95749  eV     1   --> A''            
     e( 11 - 11) =     11.31368  eV     1   --> A'             
     e( 12 - 12) =     12.55625  eV     1   --> A'             

 **************************************************************************

 **************************************************************************

                    xk=(   0.33563,   0.19378,   0.00000  )

     Band symmetry, C_s (m)     point group:

     e(  1 -  1) =    -12.09791  eV     1   --> A'             
     e(  2 -  2) =    -12.06174  eV     1   --> A'             
     e(  3 -  3) =     -4.86532  eV     1   --> A'             
     e(  4 -  4) =     -4.84883  eV     1   --> A'             
     e(  5 -  5) =     -0.99109  eV     1   --> A'             
     e(  6 -  6) =     -0.98625  eV     1   --> A'             
     e(  7 -  7) =      0.00937  eV     1   --> A''            
     e(  8 -  8) =      0.47431  eV     1   --> A''            
     e(  9 -  9) =      9.60487  eV     1   --> A''            
     e( 10 - 10) =      9.82208  eV     1   --> A''            
     e( 11 - 11) =     11.41279  eV     1   --> A'             
     e( 12 - 12) =     12.53849  eV     1   --> A'             

 **************************************************************************

 **************************************************************************

                    xk=(   0.34064,   0.19667,   0.00000  )

     Band symmetry, C_s (m)     point group:

     e(  1 -  1) =    -12.02106  eV     1   --> A'             
     e(  2 -  2) =    -11.98515  eV     1   --> A'             
     e(  3 -  3) =     -4.99585  eV     1   --> A'             
     e(  4 -  4) =     -4.97906  eV     1   --> A'             
     e(  5 -  5) =     -1.02728  eV     1   --> A'             
     e(  6 -  6) =     -1.02243  eV     1   --> A'             
     e(  7 -  7) =      0.09530  eV     1   --> A''            
     e(  8 -  8) =      0.55624  eV     1   --> A''            
     e(  9 -  9) =      9.46500  eV     1   --> A''            
     e( 10 - 10) =      9.68715  eV     1   --> A''            
     e( 11 - 11) =     11.51287  eV     1   --> A'             
     e( 12 - 12) =     12.52113  eV     1   --> A'             

 **************************************************************************

 **************************************************************************

                    xk=(   0.34565,   0.19956,   0.00000  )

     Band symmetry, C_s (m)     point group:

     e(  1 -  1) =    -11.94321  eV     1   --> A'             
     e(  2 -  2) =    -11.90755  eV     1   --> A'             
     e(  3 -  3) =     -5.12596  eV     1   --> A'             
     e(  4 -  4) =     -5.10886  eV     1   --> A'             
     e(  5 -  5) =     -1.06250  eV     1   --> A'             
     e(  6 -  6) =     -1.05763  eV     1   --> A'             
     e(  7 -  7) =      0.18191  eV     1   --> A''            
     e(  8 -  8) =      0.63867  eV     1   --> A''            
     e(  9 -  9) =      9.32583  eV     1   --> A''            
     e( 10 - 10) =      9.55280  eV     1   --> A''            
     e( 11 - 11) =     11.61373  eV     1   --> A'             
     e( 12 - 12) =     12.50420  eV     1   --> A'             

 **************************************************************************

 **************************************************************************

                    xk=(   0.35066,   0.20245,   0.00000  )

     Band symmetry, C_s (m)     point group:

     e(  1 -  1) =    -11.86436  eV     1   --> A'             
     e(  2 -  2) =    -11.82896  eV     1   --> A'             
     e(  3 -  3) =     -5.25561  eV     1   --> A'             
     e(  4 -  4) =     -5.23822  eV     1   --> A'             
     e(  5 -  5) =     -1.09672  eV     1   --> A'             
     e(  6 -  6) =     -1.09184  eV     1   --> A'             
     e(  7 -  7) =      0.26914  eV     1   --> A''            
     e(  8 -  8) =      0.72154  eV     1   --> A''            
     e(  9 -  9) =      9.18749  eV     1   --> A''            
     e( 10 - 10) =      9.41912  eV     1   --> A''            
     e( 11 - 11) =     11.71506  eV     1   --> A'             
     e( 12 - 12) =     12.48774  eV     1   --> A'             

 **************************************************************************

 **************************************************************************

                    xk=(   0.35567,   0.20535,   0.00000  )

     Band symmetry, C_s (m)     point group:

     e(  1 -  1) =    -11.78453  eV     1   --> A'             
     e(  2 -  2) =    -11.74942  eV     1   --> A'             
     e(  3 -  3) =     -5.38478  eV     1   --> A'             
     e(  4 -  4) =     -5.36708  eV     1   --> A'             
     e(  5 -  5) =     -1.12995  eV     1   --> A'             
     e(  6 -  6) =     -1.12505  eV     1   --> A'             
     e(  7 -  7) =      0.35693  eV     1   --> A''            
     e(  8 -  8) =      0.80477  eV     1   --> A''            
     e(  9 -  9) =      9.05008  eV     1   --> A''            
     e( 10 - 10) =      9.28622  eV     1   --> A''            
     e( 11 - 11) =     11.81643  eV     1   --> A'             
     e( 12 - 12) =     12.47179  eV     1   --> A'             

 **************************************************************************

 **************************************************************************

                    xk=(   0.36068,   0.20824,   0.00000  )

     Band symmetry, C_s (m)     point group:

     e(  1 -  1) =    -11.70372  eV     1   --> A'             
     e(  2 -  2) =    -11.66888  eV     1   --> A'             
     e(  3 -  3) =     -5.51342  eV     1   --> A'             
     e(  4 -  4) =     -5.49543  eV     1   --> A'             
     e(  5 -  5) =     -1.16216  eV     1   --> A'             
     e(  6 -  6) =     -1.15723  eV     1   --> A'             
     e(  7 -  7) =      0.44522  eV     1   --> A''            
     e(  8 -  8) =      0.88828  eV     1   --> A''            
     e(  9 -  9) =      8.91373  eV     1   --> A''            
     e( 10 - 10) =      9.15421  eV     1   --> A''            
     e( 11 - 11) =     11.91703  eV     1   --> A'             
     e( 12 - 12) =     12.45641  eV     1   --> A'             

 **************************************************************************

 **************************************************************************

                    xk=(   0.36569,   0.21113,   0.00000  )

     Band symmetry, C_s (m)     point group:

     e(  1 -  1) =    -11.62197  eV     1   --> A'             
     e(  2 -  2) =    -11.58740  eV     1   --> A'             
     e(  3 -  3) =     -5.64152  eV     1   --> A'             
     e(  4 -  4) =     -5.62326  eV     1   --> A'             
     e(  5 -  5) =     -1.19334  eV     1   --> A'             
     e(  6 -  6) =     -1.18840  eV     1   --> A'             
     e(  7 -  7) =      0.53393  eV     1   --> A''            
     e(  8 -  8) =      0.97197  eV     1   --> A''            
     e(  9 -  9) =      8.77849  eV     1   --> A''            
     e( 10 - 10) =      9.02315  eV     1   --> A''            
     e( 11 - 11) =     12.01549  eV     1   --> A'             
     e( 12 - 12) =     12.44169  eV     1   --> A'             

 **************************************************************************

 **************************************************************************

                    xk=(   0.37070,   0.21402,   0.00000  )

     Band symmetry, C_s (m)     point group:

[...]

 **************************************************************************

                    xk=(   0.21038,   0.36438,   0.14825  )

     zone border point and non-symmorphic group 
     symmetry decomposition not available

 **************************************************************************

 **************************************************************************

                    xk=(   0.20704,   0.35860,   0.14825  )

     zone border point and non-symmorphic group 
     symmetry decomposition not available

 **************************************************************************

 **************************************************************************

                    xk=(   0.20370,   0.35281,   0.14825  )

     zone border point and non-symmorphic group 
     symmetry decomposition not available

 **************************************************************************

 **************************************************************************

                    xk=(   0.20036,   0.34703,   0.14825  )

     zone border point and non-symmorphic group 
     symmetry decomposition not available

 **************************************************************************

 **************************************************************************

                    xk=(   0.19702,   0.34125,   0.14825  )

     zone border point and non-symmorphic group 
     symmetry decomposition not available

 **************************************************************************

 **************************************************************************

                    xk=(   0.19368,   0.33546,   0.14825  )

     zone border point and non-symmorphic group 
     symmetry decomposition not available

 **************************************************************************

 **************************************************************************

                    xk=(   0.19034,   0.32968,   0.14825  )

     zone border point and non-symmorphic group 
     symmetry decomposition not available

 **************************************************************************

 **************************************************************************

                    xk=(   0.18700,   0.32389,   0.14825  )

     zone border point and non-symmorphic group 
     symmetry decomposition not available

 **************************************************************************

 **************************************************************************

                    xk=(   0.18366,   0.31811,   0.14825  )

     zone border point and non-symmorphic group 
     symmetry decomposition not available

 **************************************************************************

 **************************************************************************

                    xk=(   0.18032,   0.31233,   0.14825  )

     zone border point and non-symmorphic group 
     symmetry decomposition not available

 **************************************************************************

 **************************************************************************

                    xk=(   0.17698,   0.30654,   0.14825  )

     zone border point and non-symmorphic group 
     symmetry decomposition not available

 **************************************************************************

 **************************************************************************

                    xk=(   0.17364,   0.30076,   0.14825  )

     zone border point and non-symmorphic group 
     symmetry decomposition not available

 **************************************************************************

 **************************************************************************

                    xk=(   0.17030,   0.29498,   0.14825  )

     zone border point and non-symmorphic group 
     symmetry decomposition not available

 **************************************************************************

 **************************************************************************

                    xk=(   0.16697,   0.28919,   0.14825  )

     zone border point and non-symmorphic group 
     symmetry decomposition not available

 **************************************************************************

 **************************************************************************

                    xk=(   0.16363,   0.28341,   0.14825  )

     zone border point and non-symmorphic group 
     symmetry decomposition not available

 **************************************************************************

 **************************************************************************

                    xk=(   0.16029,   0.27762,   0.14825  )

     zone border point and non-symmorphic group 
     symmetry decomposition not available

 **************************************************************************

 **************************************************************************

                    xk=(   0.15695,   0.27184,   0.14825  )

     zone border point and non-symmorphic group 
     symmetry decomposition not available

 **************************************************************************

 **************************************************************************

                    xk=(   0.15361,   0.26606,   0.14825  )

     zone border point and non-symmorphic group 
     symmetry decomposition not available

 **************************************************************************

 **************************************************************************

                    xk=(   0.15027,   0.26027,   0.14825  )

     zone border point and non-symmorphic group 
     symmetry decomposition not available

 **************************************************************************

 **************************************************************************

                    xk=(   0.14693,   0.25449,   0.14825  )

     zone border point and non-symmorphic group 
     symmetry decomposition not available

 **************************************************************************

 **************************************************************************

                    xk=(   0.14359,   0.24871,   0.14825  )

     zone border point and non-symmorphic group 
     symmetry decomposition not available

 **************************************************************************

 **************************************************************************

                    xk=(   0.14025,   0.24292,   0.14825  )

     zone border point and non-symmorphic group 
     symmetry decomposition not available

 **************************************************************************

 **************************************************************************

                    xk=(   0.13691,   0.23714,   0.14825  )

     zone border point and non-symmorphic group 
     symmetry decomposition not available

 **************************************************************************

 **************************************************************************

                    xk=(   0.13357,   0.23135,   0.14825  )

     zone border point and non-symmorphic group 
     symmetry decomposition not available

 **************************************************************************

 **************************************************************************

                    xk=(   0.13023,   0.22557,   0.14825  )

     zone border point and non-symmorphic group 
     symmetry decomposition not available

 **************************************************************************

 **************************************************************************

                    xk=(   0.12689,   0.21979,   0.14825  )

     zone border point and non-symmorphic group 
     symmetry decomposition not available

 **************************************************************************

 **************************************************************************

                    xk=(   0.12355,   0.21400,   0.14825  )

     zone border point and non-symmorphic group 
     symmetry decomposition not available

 **************************************************************************

 **************************************************************************

                    xk=(   0.12021,   0.20822,   0.14825  )

     zone border point and non-symmorphic group 
     symmetry decomposition not available

 **************************************************************************

 **************************************************************************

                    xk=(   0.11688,   0.20243,   0.14825  )

     zone border point and non-symmorphic group 
     symmetry decomposition not available

 **************************************************************************

 **************************************************************************

                    xk=(   0.11354,   0.19665,   0.14825  )

     zone border point and non-symmorphic group 
     symmetry decomposition not available

 **************************************************************************

 **************************************************************************

                    xk=(   0.11020,   0.19087,   0.14825  )

     zone border point and non-symmorphic group 
     symmetry decomposition not available

 **************************************************************************

 **************************************************************************

                    xk=(   0.10686,   0.18508,   0.14825  )

     zone border point and non-symmorphic group 
     symmetry decomposition not available

 **************************************************************************

 **************************************************************************

                    xk=(   0.10352,   0.17930,   0.14825  )

     zone border point and non-symmorphic group 
     symmetry decomposition not available

 **************************************************************************

 **************************************************************************

                    xk=(   0.10018,   0.17352,   0.14825  )

     zone border point and non-symmorphic group 
     symmetry decomposition not available

 **************************************************************************

 **************************************************************************

                    xk=(   0.09684,   0.16773,   0.14825  )

     zone border point and non-symmorphic group 
     symmetry decomposition not available

 **************************************************************************

 **************************************************************************

                    xk=(   0.09350,   0.16195,   0.14825  )

     zone border point and non-symmorphic group 
     symmetry decomposition not available

 **************************************************************************

 **************************************************************************

                    xk=(   0.09016,   0.15616,   0.14825  )

     zone border point and non-symmorphic group 
     symmetry decomposition not available

 **************************************************************************

 **************************************************************************

                    xk=(   0.08682,   0.15038,   0.14825  )

     zone border point and non-symmorphic group 
     symmetry decomposition not available

 **************************************************************************

 **************************************************************************

                    xk=(   0.08348,   0.14460,   0.14825  )

     zone border point and non-symmorphic group 
     symmetry decomposition not available

 **************************************************************************

 **************************************************************************

                    xk=(   0.08014,   0.13881,   0.14825  )

     zone border point and non-symmorphic group 
     symmetry decomposition not available

 **************************************************************************

 **************************************************************************

                    xk=(   0.07680,   0.13303,   0.14825  )

     zone border point and non-symmorphic group 
     symmetry decomposition not available

 **************************************************************************

 **************************************************************************

                    xk=(   0.07346,   0.12724,   0.14825  )

     zone border point and non-symmorphic group 
     symmetry decomposition not available

 **************************************************************************

 **************************************************************************

                    xk=(   0.07013,   0.12146,   0.14825  )

     zone border point and non-symmorphic group 
     symmetry decomposition not available

 **************************************************************************

 **************************************************************************

                    xk=(   0.06679,   0.11568,   0.14825  )

     zone border point and non-symmorphic group 
     symmetry decomposition not available

 **************************************************************************

 **************************************************************************

                    xk=(   0.06345,   0.10989,   0.14825  )

     zone border point and non-symmorphic group 
     symmetry decomposition not available

 **************************************************************************

 **************************************************************************

                    xk=(   0.06011,   0.10411,   0.14825  )

     zone border point and non-symmorphic group 
     symmetry decomposition not available

 **************************************************************************

 **************************************************************************

                    xk=(   0.05677,   0.09833,   0.14825  )

     zone border point and non-symmorphic group 
     symmetry decomposition not available

 **************************************************************************

 **************************************************************************

                    xk=(   0.05343,   0.09254,   0.14825  )

     zone border point and non-symmorphic group 
     symmetry decomposition not available

 **************************************************************************

 **************************************************************************

                    xk=(   0.05009,   0.08676,   0.14825  )

     zone border point and non-symmorphic group 
     symmetry decomposition not available

 **************************************************************************

 **************************************************************************

                    xk=(   0.04675,   0.08097,   0.14825  )

     zone border point and non-symmorphic group 
     symmetry decomposition not available

 **************************************************************************

 **************************************************************************

                    xk=(   0.04341,   0.07519,   0.14825  )

     zone border point and non-symmorphic group 
     symmetry decomposition not available

 **************************************************************************

 **************************************************************************

                    xk=(   0.04007,   0.06941,   0.14825  )

     zone border point and non-symmorphic group 
     symmetry decomposition not available

 **************************************************************************

 **************************************************************************

                    xk=(   0.03673,   0.06362,   0.14825  )

     zone border point and non-symmorphic group 
     symmetry decomposition not available

 **************************************************************************

 **************************************************************************

                    xk=(   0.03339,   0.05784,   0.14825  )

     zone border point and non-symmorphic group 
     symmetry decomposition not available

 **************************************************************************

 **************************************************************************

                    xk=(   0.03005,   0.05205,   0.14825  )

     zone border point and non-symmorphic group 
     symmetry decomposition not available

 **************************************************************************

 **************************************************************************

                    xk=(   0.02671,   0.04627,   0.14825  )

     zone border point and non-symmorphic group 
     symmetry decomposition not available

 **************************************************************************

 **************************************************************************

                    xk=(   0.02338,   0.04049,   0.14825  )

     zone border point and non-symmorphic group 
     symmetry decomposition not available

 **************************************************************************

 **************************************************************************

                    xk=(   0.02004,   0.03470,   0.14825  )

     zone border point and non-symmorphic group 
     symmetry decomposition not available

 **************************************************************************

 **************************************************************************

                    xk=(   0.01670,   0.02892,   0.14825  )

     zone border point and non-symmorphic group 
     symmetry decomposition not available

 **************************************************************************

 **************************************************************************

                    xk=(   0.01336,   0.02314,   0.14825  )

     zone border point and non-symmorphic group 
     symmetry decomposition not available

 **************************************************************************

 **************************************************************************

                    xk=(   0.01002,   0.01735,   0.14825  )

     zone border point and non-symmorphic group 
     symmetry decomposition not available

 **************************************************************************

 **************************************************************************

                    xk=(   0.00668,   0.01157,   0.14825  )

     zone border point and non-symmorphic group 
     symmetry decomposition not available

 **************************************************************************

 **************************************************************************

                    xk=(   0.00334,   0.00578,   0.14825  )

     zone border point and non-symmorphic group 
     symmetry decomposition not available

 **************************************************************************

 **************************************************************************

                    xk=(   0.00000,   0.00000,   0.14825  )

     zone border point and non-symmorphic group 
     symmetry decomposition not available

 **************************************************************************

     BANDS        :   2m32.26s CPU   2m35.45s WALL


   This run was terminated on:  10:43:58  24May2022            

=------------------------------------------------------------------------------=
   JOB DONE.
=------------------------------------------------------------------------------=
