
     Program PWSCF v.6.7MaX starts on 23May2022 at 11:45: 5 

     This program is part of the open-source Quantum ESPRESSO suite
     for quantum simulation of materials; please cite
         "P. Giannozzi et al., J. Phys.:Condens. Matter 21 395502 (2009);
         "P. Giannozzi et al., J. Phys.:Condens. Matter 29 465901 (2017);
          URL http://www.quantum-espresso.org", 
     in publications or presentations arising from this work. More details at
     http://www.quantum-espresso.org/quote

     Parallel version (MPI), running on     1 processors

     MPI processes distributed on     1 nodes
     Waiting for input...
     Reading input from standard input

     Current dimensions of program PWSCF are:
     Max number of different atomic species (ntypx) = 10
     Max number of k-points (npk) =  40000
     Max angular momentum in pseudopotentials (lmaxx) =  3

     Subspace diagonalization in iterative solution of the eigenvalue problem:
     a serial algorithm will be used


     G-vector sticks info
     --------------------
     sticks:   dense  smooth     PW     G-vecs:    dense   smooth      PW
     Sum         661     337    109                46293    16239    2921



     bravais-lattice index     =            4
     lattice parameter (alat)  =       4.6676  a.u.
     unit-cell volume          =     297.0066 (a.u.)^3
     number of atoms/cell      =            4
     number of atomic types    =            1
     number of electrons       =        16.00
     number of Kohn-Sham states=           12
     kinetic-energy cutoff     =      55.0000  Ry
     charge density cutoff     =     440.0000  Ry
     scf convergence threshold =      1.0E-09
     mixing beta               =       0.7000
     number of iterations used =            8  plain     mixing
     Exchange-correlation= PBE
                           (   1   4   3   4   0   0   0)

     celldm(1)=   4.667624  celldm(2)=   1.000000  celldm(3)=   3.372470
     celldm(4)=   0.000000  celldm(5)=   0.000000  celldm(6)=   0.000000

     crystal axes: (cart. coord. in units of alat)
               a(1) = (   1.000000   0.000000   0.000000 )  
               a(2) = (  -0.500000   0.866025   0.000000 )  
               a(3) = (   0.000000   0.000000   3.372470 )  

     reciprocal axes: (cart. coord. in units 2 pi/alat)
               b(1) = (  1.000000  0.577350 -0.000000 )  
               b(2) = (  0.000000  1.154701  0.000000 )  
               b(3) = (  0.000000 -0.000000  0.296519 )  


     PseudoPot. # 1 for C  read from file:
     /home/max/Desktop/graphite_DFT/Pseudo/C.pbe-n-rrkjus_psl.1.0.0.UPF
     MD5 check sum: 1fdd950c42eb37d8afe3dd2f8d12311e
     Pseudo is Ultrasoft + core correction, Zval =  4.0
     Generated using &quot;atomic&quot; code by A. Dal Corso  v.6.3MaX
     Using radial grid of 1073 points,  4 beta functions with: 
                l(1) =   0
                l(2) =   0
                l(3) =   1
                l(4) =   1
     Q(r) pseudized with 0 coefficients 


     atomic species   valence    mass     pseudopotential
        C              4.00    12.01100     C ( 1.00)

      8 Sym. Ops., with inversion, found ( 4 have fractional translation)


                                    s                        frac. trans.

      isym =  1     identity                                     

 cryst.   s( 1) = (     1          0          0      )
                  (     0          1          0      )
                  (     0          0          1      )

 cart.    s( 1) = (  1.0000000  0.0000000  0.0000000 )
                  (  0.0000000  1.0000000  0.0000000 )
                  (  0.0000000  0.0000000  1.0000000 )


      isym =  2     180 deg rotation - cart. axis [0,0,1]        

 cryst.   s( 2) = (    -1          0          0      )    f =(  0.0000000 )
                  (     0         -1          0      )       (  0.0000000 )
                  (     0          0          1      )       ( -0.5000000 )

 cart.    s( 2) = ( -1.0000000  0.0000000  0.0000000 )    f =(  0.0000000 )
                  (  0.0000000 -1.0000000  0.0000000 )       (  0.0000000 )
                  (  0.0000000  0.0000000  1.0000000 )       ( -1.6862348 )


      isym =  3     180 deg rotation - cart. axis [0,1,0]        

 cryst.   s( 3) = (    -1          0          0      )    f =(  0.0000000 )
                  (     1          1          0      )       (  0.0000000 )
                  (     0          0         -1      )       (  0.5000000 )

 cart.    s( 3) = ( -1.0000000  0.0000000  0.0000000 )    f =(  0.0000000 )
                  (  0.0000000  1.0000000  0.0000000 )       (  0.0000000 )
                  (  0.0000000  0.0000000 -1.0000000 )       (  1.6862348 )


      isym =  4     180 deg rotation - cart. axis [1,0,0]        

 cryst.   s( 4) = (     1          0          0      )
                  (    -1         -1          0      )
                  (     0          0         -1      )

 cart.    s( 4) = (  1.0000000  0.0000000  0.0000000 )
                  (  0.0000000 -1.0000000  0.0000000 )
                  (  0.0000000  0.0000000 -1.0000000 )


      isym =  5     inversion                                    

 cryst.   s( 5) = (    -1          0          0      )
                  (     0         -1          0      )
                  (     0          0         -1      )

 cart.    s( 5) = ( -1.0000000  0.0000000  0.0000000 )
                  (  0.0000000 -1.0000000  0.0000000 )
                  (  0.0000000  0.0000000 -1.0000000 )


      isym =  6     inv. 180 deg rotation - cart. axis [0,0,1]   

 cryst.   s( 6) = (     1          0          0      )    f =(  0.0000000 )
                  (     0          1          0      )       (  0.0000000 )
                  (     0          0         -1      )       (  0.5000000 )

 cart.    s( 6) = (  1.0000000  0.0000000  0.0000000 )    f =(  0.0000000 )
                  (  0.0000000  1.0000000  0.0000000 )       (  0.0000000 )
                  (  0.0000000  0.0000000 -1.0000000 )       (  1.6862348 )


      isym =  7     inv. 180 deg rotation - cart. axis [0,1,0]   

 cryst.   s( 7) = (     1          0          0      )    f =(  0.0000000 )
                  (    -1         -1          0      )       (  0.0000000 )
                  (     0          0          1      )       ( -0.5000000 )

 cart.    s( 7) = (  1.0000000  0.0000000  0.0000000 )    f =(  0.0000000 )
                  (  0.0000000 -1.0000000  0.0000000 )       (  0.0000000 )
                  (  0.0000000  0.0000000  1.0000000 )       ( -1.6862348 )


      isym =  8     inv. 180 deg rotation - cart. axis [1,0,0]   

 cryst.   s( 8) = (    -1          0          0      )
                  (     1          1          0      )
                  (     0          0          1      )

 cart.    s( 8) = ( -1.0000000  0.0000000  0.0000000 )
                  (  0.0000000  1.0000000  0.0000000 )
                  (  0.0000000  0.0000000  1.0000000 )


     point group D_2h (mmm) 
     there are  8 classes
     the character table:

       E     C2    C2'   C2''  i     s_v   s_v'  s_v''
A_g    1.00  1.00  1.00  1.00  1.00  1.00  1.00  1.00
B_1g   1.00  1.00 -1.00 -1.00  1.00  1.00 -1.00 -1.00
B_2g   1.00 -1.00  1.00 -1.00  1.00 -1.00  1.00 -1.00
B_3g   1.00 -1.00 -1.00  1.00  1.00 -1.00 -1.00  1.00
A_u    1.00  1.00  1.00  1.00 -1.00 -1.00 -1.00 -1.00
B_1u   1.00  1.00 -1.00 -1.00 -1.00 -1.00  1.00  1.00
B_2u   1.00 -1.00  1.00 -1.00 -1.00  1.00 -1.00  1.00
B_3u   1.00 -1.00 -1.00  1.00 -1.00  1.00  1.00 -1.00

     the symmetry operations in each class and the name of the first element:

     E        1
          identity                                               
     C2       2
          180 deg rotation - cart. axis [0,0,1]                  
     C2'      4
          180 deg rotation - cart. axis [1,0,0]                  
     C2''     3
          180 deg rotation - cart. axis [0,1,0]                  
     i        5
          inversion                                              
     s_v      6
          inv. 180 deg rotation - cart. axis [0,0,1]             
     s_v'     8
          inv. 180 deg rotation - cart. axis [1,0,0]             
     s_v''    7
          inv. 180 deg rotation - cart. axis [0,1,0]             

   Cartesian axes

     site n.     atom                  positions (alat units)
         1           C   tau(   1) = (   0.0000000   0.0000000   0.8431174  )
         2           C   tau(   2) = (   0.0000000   0.0000000   2.5293522  )
         3           C   tau(   3) = (   0.0000000   0.5772925   0.8431174  )
         4           C   tau(   4) = (   0.5000000   0.2887329   2.5293522  )

   Crystallographic axes

     site n.     atom                  positions (cryst. coord.)
         1           C   tau(   1) = (  0.0000000  0.0000000  0.2500000  )
         2           C   tau(   2) = (  0.0000000  0.0000000  0.7500000  )
         3           C   tau(   3) = (  0.3333000  0.6666000  0.2500000  )
         4           C   tau(   4) = (  0.6667000  0.3334000  0.7500000  )

     number of k points=   215  Methfessel-Paxton smearing, width (Ry)=  0.0300
                       cart. coord. in units 2pi/alat
        k(    1) = (   0.0000000   0.0000000   0.0000000), wk =   0.0017361
        k(    2) = (   0.0000000   0.0000000   0.0370648), wk =   0.0034722
        k(    3) = (   0.0000000   0.0000000   0.0741297), wk =   0.0034722
        k(    4) = (   0.0000000   0.0000000   0.1111945), wk =   0.0034722
        k(    5) = (   0.0000000   0.0000000  -0.1482593), wk =   0.0017361
        k(    6) = (   0.0000000   0.0962250   0.0000000), wk =   0.0034722
        k(    7) = (   0.0000000   0.0962250   0.0370648), wk =   0.0069444
        k(    8) = (   0.0000000   0.0962250   0.0741297), wk =   0.0069444
        k(    9) = (   0.0000000   0.0962250   0.1111945), wk =   0.0069444
        k(   10) = (   0.0000000   0.0962250  -0.1482593), wk =   0.0034722
        k(   11) = (   0.0000000   0.1924501   0.0000000), wk =   0.0034722
        k(   12) = (   0.0000000   0.1924501   0.0370648), wk =   0.0069444
        k(   13) = (   0.0000000   0.1924501   0.0741297), wk =   0.0069444
        k(   14) = (   0.0000000   0.1924501   0.1111945), wk =   0.0069444
        k(   15) = (   0.0000000   0.1924501  -0.1482593), wk =   0.0034722
        k(   16) = (   0.0000000   0.2886751   0.0000000), wk =   0.0034722
        k(   17) = (   0.0000000   0.2886751   0.0370648), wk =   0.0069444
        k(   18) = (   0.0000000   0.2886751   0.0741297), wk =   0.0069444
        k(   19) = (   0.0000000   0.2886751   0.1111945), wk =   0.0069444
        k(   20) = (   0.0000000   0.2886751  -0.1482593), wk =   0.0034722
        k(   21) = (   0.0000000   0.3849002   0.0000000), wk =   0.0034722
        k(   22) = (   0.0000000   0.3849002   0.0370648), wk =   0.0069444
        k(   23) = (   0.0000000   0.3849002   0.0741297), wk =   0.0069444
        k(   24) = (   0.0000000   0.3849002   0.1111945), wk =   0.0069444
        k(   25) = (   0.0000000   0.3849002  -0.1482593), wk =   0.0034722
        k(   26) = (   0.0000000   0.4811252   0.0000000), wk =   0.0034722
        k(   27) = (   0.0000000   0.4811252   0.0370648), wk =   0.0069444
        k(   28) = (   0.0000000   0.4811252   0.0741297), wk =   0.0069444
        k(   29) = (   0.0000000   0.4811252   0.1111945), wk =   0.0069444
        k(   30) = (   0.0000000   0.4811252  -0.1482593), wk =   0.0034722
        k(   31) = (   0.0000000  -0.5773503   0.0000000), wk =   0.0017361
        k(   32) = (   0.0000000  -0.5773503   0.0370648), wk =   0.0034722
        k(   33) = (   0.0000000  -0.5773503   0.0741297), wk =   0.0034722
        k(   34) = (   0.0000000  -0.5773503   0.1111945), wk =   0.0034722
        k(   35) = (   0.0000000  -0.5773503  -0.1482593), wk =   0.0017361
        k(   36) = (   0.0833333   0.1443376   0.0000000), wk =   0.0069444
        k(   37) = (   0.0833333   0.1443376   0.0370648), wk =   0.0138889
        k(   38) = (   0.0833333   0.1443376   0.0741297), wk =   0.0138889
        k(   39) = (   0.0833333   0.1443376   0.1111945), wk =   0.0138889
        k(   40) = (   0.0833333   0.1443376  -0.1482593), wk =   0.0069444
        k(   41) = (   0.0833333   0.2405626   0.0000000), wk =   0.0069444
        k(   42) = (   0.0833333   0.2405626   0.0370648), wk =   0.0138889
        k(   43) = (   0.0833333   0.2405626   0.0741297), wk =   0.0138889
        k(   44) = (   0.0833333   0.2405626   0.1111945), wk =   0.0138889
        k(   45) = (   0.0833333   0.2405626  -0.1482593), wk =   0.0069444
        k(   46) = (   0.0833333   0.3367877   0.0000000), wk =   0.0069444
        k(   47) = (   0.0833333   0.3367877   0.0370648), wk =   0.0138889
        k(   48) = (   0.0833333   0.3367877   0.0741297), wk =   0.0138889
        k(   49) = (   0.0833333   0.3367877   0.1111945), wk =   0.0138889
        k(   50) = (   0.0833333   0.3367877  -0.1482593), wk =   0.0069444
        k(   51) = (   0.0833333   0.4330127   0.0000000), wk =   0.0069444
        k(   52) = (   0.0833333   0.4330127   0.0370648), wk =   0.0138889
        k(   53) = (   0.0833333   0.4330127   0.0741297), wk =   0.0138889
        k(   54) = (   0.0833333   0.4330127   0.1111945), wk =   0.0138889
        k(   55) = (   0.0833333   0.4330127  -0.1482593), wk =   0.0069444
        k(   56) = (   0.0833333   0.5292377   0.0000000), wk =   0.0069444
        k(   57) = (   0.0833333   0.5292377   0.0370648), wk =   0.0138889
        k(   58) = (   0.0833333   0.5292377   0.0741297), wk =   0.0138889
        k(   59) = (   0.0833333   0.5292377   0.1111945), wk =   0.0138889
        k(   60) = (   0.0833333   0.5292377  -0.1482593), wk =   0.0069444
        k(   61) = (   0.1666667   0.2886751   0.0000000), wk =   0.0069444
        k(   62) = (   0.1666667   0.2886751   0.0370648), wk =   0.0138889
        k(   63) = (   0.1666667   0.2886751   0.0741297), wk =   0.0138889
        k(   64) = (   0.1666667   0.2886751   0.1111945), wk =   0.0138889
        k(   65) = (   0.1666667   0.2886751  -0.1482593), wk =   0.0069444
        k(   66) = (   0.1666667   0.3849002   0.0000000), wk =   0.0069444
        k(   67) = (   0.1666667   0.3849002   0.0370648), wk =   0.0138889
        k(   68) = (   0.1666667   0.3849002   0.0741297), wk =   0.0138889
        k(   69) = (   0.1666667   0.3849002   0.1111945), wk =   0.0138889
        k(   70) = (   0.1666667   0.3849002  -0.1482593), wk =   0.0069444
        k(   71) = (   0.1666667   0.4811252   0.0000000), wk =   0.0069444
        k(   72) = (   0.1666667   0.4811252   0.0370648), wk =   0.0138889
        k(   73) = (   0.1666667   0.4811252   0.0741297), wk =   0.0138889
        k(   74) = (   0.1666667   0.4811252   0.1111945), wk =   0.0138889
        k(   75) = (   0.1666667   0.4811252  -0.1482593), wk =   0.0069444
        k(   76) = (   0.1666667   0.5773503   0.0000000), wk =   0.0034722
        k(   77) = (   0.1666667   0.5773503   0.0370648), wk =   0.0069444
        k(   78) = (   0.1666667   0.5773503   0.0741297), wk =   0.0069444
        k(   79) = (   0.1666667   0.5773503   0.1111945), wk =   0.0069444
        k(   80) = (   0.1666667   0.5773503  -0.1482593), wk =   0.0034722
        k(   81) = (   0.2500000   0.4330127   0.0000000), wk =   0.0069444
        k(   82) = (   0.2500000   0.4330127   0.0370648), wk =   0.0138889
        k(   83) = (   0.2500000   0.4330127   0.0741297), wk =   0.0138889
        k(   84) = (   0.2500000   0.4330127   0.1111945), wk =   0.0138889
        k(   85) = (   0.2500000   0.4330127  -0.1482593), wk =   0.0069444
        k(   86) = (   0.2500000   0.5292377   0.0000000), wk =   0.0069444
        k(   87) = (   0.2500000   0.5292377   0.0370648), wk =   0.0138889
        k(   88) = (   0.2500000   0.5292377   0.0741297), wk =   0.0138889
        k(   89) = (   0.2500000   0.5292377   0.1111945), wk =   0.0138889
        k(   90) = (   0.2500000   0.5292377  -0.1482593), wk =   0.0069444
        k(   91) = (   0.3333333   0.5773503   0.0000000), wk =   0.0034722
        k(   92) = (   0.3333333   0.5773503   0.0370648), wk =   0.0069444
        k(   93) = (   0.3333333   0.5773503   0.0741297), wk =   0.0069444
        k(   94) = (   0.3333333   0.5773503   0.1111945), wk =   0.0069444
        k(   95) = (   0.3333333   0.5773503  -0.1482593), wk =   0.0034722
        k(   96) = (  -0.0833333  -0.0481125   0.0000000), wk =   0.0069444
        k(   97) = (  -0.0833333  -0.0481125  -0.0370648), wk =   0.0138889
        k(   98) = (  -0.0833333  -0.0481125  -0.0741297), wk =   0.0138889
        k(   99) = (  -0.0833333  -0.0481125  -0.1111945), wk =   0.0138889
        k(  100) = (  -0.0833333  -0.0481125   0.1482593), wk =   0.0069444
        k(  101) = (  -0.1666667  -0.0962250   0.0000000), wk =   0.0069444
        k(  102) = (  -0.1666667  -0.0962250  -0.0370648), wk =   0.0138889
        k(  103) = (  -0.1666667  -0.0962250  -0.0741297), wk =   0.0138889
        k(  104) = (  -0.1666667  -0.0962250  -0.1111945), wk =   0.0138889
        k(  105) = (  -0.1666667  -0.0962250   0.1482593), wk =   0.0069444
        k(  106) = (  -0.2500000  -0.1443376   0.0000000), wk =   0.0069444
        k(  107) = (  -0.2500000  -0.1443376  -0.0370648), wk =   0.0138889
        k(  108) = (  -0.2500000  -0.1443376  -0.0741297), wk =   0.0138889
        k(  109) = (  -0.2500000  -0.1443376  -0.1111945), wk =   0.0138889
        k(  110) = (  -0.2500000  -0.1443376   0.1482593), wk =   0.0069444
        k(  111) = (  -0.3333333  -0.1924501   0.0000000), wk =   0.0069444
        k(  112) = (  -0.3333333  -0.1924501  -0.0370648), wk =   0.0138889
        k(  113) = (  -0.3333333  -0.1924501  -0.0741297), wk =   0.0138889
        k(  114) = (  -0.3333333  -0.1924501  -0.1111945), wk =   0.0138889
        k(  115) = (  -0.3333333  -0.1924501   0.1482593), wk =   0.0069444
        k(  116) = (  -0.4166667  -0.2405626   0.0000000), wk =   0.0069444
        k(  117) = (  -0.4166667  -0.2405626  -0.0370648), wk =   0.0138889
        k(  118) = (  -0.4166667  -0.2405626  -0.0741297), wk =   0.0138889
        k(  119) = (  -0.4166667  -0.2405626  -0.1111945), wk =   0.0138889
        k(  120) = (  -0.4166667  -0.2405626   0.1482593), wk =   0.0069444
        k(  121) = (   0.5000000   0.2886751   0.0000000), wk =   0.0034722
        k(  122) = (   0.5000000   0.2886751  -0.0370648), wk =   0.0069444
        k(  123) = (   0.5000000   0.2886751  -0.0741297), wk =   0.0069444
        k(  124) = (   0.5000000   0.2886751  -0.1111945), wk =   0.0069444
        k(  125) = (   0.5000000   0.2886751   0.1482593), wk =   0.0034722
        k(  126) = (   0.1666667   0.0000000   0.0000000), wk =   0.0034722
        k(  127) = (   0.1666667   0.0000000  -0.0370648), wk =   0.0069444
        k(  128) = (   0.1666667   0.0000000  -0.0741297), wk =   0.0069444
        k(  129) = (   0.1666667   0.0000000  -0.1111945), wk =   0.0069444
        k(  130) = (   0.1666667   0.0000000   0.1482593), wk =   0.0034722
        k(  131) = (  -0.1666667  -0.1924501   0.0000000), wk =   0.0069444
        k(  132) = (   0.2500000  -0.0481125   0.0000000), wk =   0.0069444
        k(  133) = (  -0.1666667  -0.1924501  -0.0370648), wk =   0.0138889
        k(  134) = (   0.2500000  -0.0481125  -0.0370648), wk =   0.0138889
        k(  135) = (  -0.1666667  -0.1924501  -0.0741297), wk =   0.0138889
        k(  136) = (   0.2500000  -0.0481125  -0.0741297), wk =   0.0138889
        k(  137) = (  -0.1666667  -0.1924501  -0.1111945), wk =   0.0138889
        k(  138) = (   0.2500000  -0.0481125  -0.1111945), wk =   0.0138889
        k(  139) = (  -0.1666667  -0.1924501   0.1482593), wk =   0.0069444
        k(  140) = (   0.2500000  -0.0481125   0.1482593), wk =   0.0069444
        k(  141) = (  -0.2500000  -0.2405626   0.0000000), wk =   0.0069444
        k(  142) = (   0.3333333  -0.0962250   0.0000000), wk =   0.0069444
        k(  143) = (  -0.2500000  -0.2405626  -0.0370648), wk =   0.0138889
        k(  144) = (   0.3333333  -0.0962250  -0.0370648), wk =   0.0138889
        k(  145) = (  -0.2500000  -0.2405626  -0.0741297), wk =   0.0138889
        k(  146) = (   0.3333333  -0.0962250  -0.0741297), wk =   0.0138889
        k(  147) = (  -0.2500000  -0.2405626  -0.1111945), wk =   0.0138889
        k(  148) = (   0.3333333  -0.0962250  -0.1111945), wk =   0.0138889
        k(  149) = (  -0.2500000  -0.2405626   0.1482593), wk =   0.0069444
        k(  150) = (   0.3333333  -0.0962250   0.1482593), wk =   0.0069444
        k(  151) = (  -0.3333333  -0.2886751   0.0000000), wk =   0.0069444
        k(  152) = (   0.4166667  -0.1443376   0.0000000), wk =   0.0069444
        k(  153) = (  -0.3333333  -0.2886751  -0.0370648), wk =   0.0138889
        k(  154) = (   0.4166667  -0.1443376  -0.0370648), wk =   0.0138889
        k(  155) = (  -0.3333333  -0.2886751  -0.0741297), wk =   0.0138889
        k(  156) = (   0.4166667  -0.1443376  -0.0741297), wk =   0.0138889
        k(  157) = (  -0.3333333  -0.2886751  -0.1111945), wk =   0.0138889
        k(  158) = (   0.4166667  -0.1443376  -0.1111945), wk =   0.0138889
        k(  159) = (  -0.3333333  -0.2886751   0.1482593), wk =   0.0069444
        k(  160) = (   0.4166667  -0.1443376   0.1482593), wk =   0.0069444
        k(  161) = (  -0.4166667  -0.3367877   0.0000000), wk =   0.0069444
        k(  162) = (   0.5000000  -0.1924501   0.0000000), wk =   0.0069444
        k(  163) = (  -0.4166667  -0.3367877  -0.0370648), wk =   0.0138889
        k(  164) = (   0.5000000  -0.1924501  -0.0370648), wk =   0.0138889
        k(  165) = (  -0.4166667  -0.3367877  -0.0741297), wk =   0.0138889
        k(  166) = (   0.5000000  -0.1924501  -0.0741297), wk =   0.0138889
        k(  167) = (  -0.4166667  -0.3367877  -0.1111945), wk =   0.0138889
        k(  168) = (   0.5000000  -0.1924501  -0.1111945), wk =   0.0138889
        k(  169) = (  -0.4166667  -0.3367877   0.1482593), wk =   0.0069444
        k(  170) = (   0.5000000  -0.1924501   0.1482593), wk =   0.0069444
        k(  171) = (   0.3333333   0.0000000   0.0000000), wk =   0.0034722
        k(  172) = (   0.3333333   0.0000000  -0.0370648), wk =   0.0069444
        k(  173) = (   0.3333333   0.0000000  -0.0741297), wk =   0.0069444
        k(  174) = (   0.3333333   0.0000000  -0.1111945), wk =   0.0069444
        k(  175) = (   0.3333333   0.0000000   0.1482593), wk =   0.0034722
        k(  176) = (  -0.2500000  -0.3367877   0.0000000), wk =   0.0069444
        k(  177) = (   0.4166667  -0.0481125   0.0000000), wk =   0.0069444
        k(  178) = (  -0.2500000  -0.3367877  -0.0370648), wk =   0.0138889
        k(  179) = (   0.4166667  -0.0481125  -0.0370648), wk =   0.0138889
        k(  180) = (  -0.2500000  -0.3367877  -0.0741297), wk =   0.0138889
        k(  181) = (   0.4166667  -0.0481125  -0.0741297), wk =   0.0138889
        k(  182) = (  -0.2500000  -0.3367877  -0.1111945), wk =   0.0138889
        k(  183) = (   0.4166667  -0.0481125  -0.1111945), wk =   0.0138889
        k(  184) = (  -0.2500000  -0.3367877   0.1482593), wk =   0.0069444
        k(  185) = (   0.4166667  -0.0481125   0.1482593), wk =   0.0069444
        k(  186) = (  -0.3333333  -0.3849002   0.0000000), wk =   0.0069444
        k(  187) = (   0.5000000  -0.0962250   0.0000000), wk =   0.0069444
        k(  188) = (  -0.3333333  -0.3849002  -0.0370648), wk =   0.0138889
        k(  189) = (   0.5000000  -0.0962250  -0.0370648), wk =   0.0138889
        k(  190) = (  -0.3333333  -0.3849002  -0.0741297), wk =   0.0138889
        k(  191) = (   0.5000000  -0.0962250  -0.0741297), wk =   0.0138889
        k(  192) = (  -0.3333333  -0.3849002  -0.1111945), wk =   0.0138889
        k(  193) = (   0.5000000  -0.0962250  -0.1111945), wk =   0.0138889
        k(  194) = (  -0.3333333  -0.3849002   0.1482593), wk =   0.0069444
        k(  195) = (   0.5000000  -0.0962250   0.1482593), wk =   0.0069444
        k(  196) = (  -0.4166667  -0.4330127   0.0000000), wk =   0.0069444
        k(  197) = (  -0.4166667  -0.4330127  -0.0370648), wk =   0.0138889
        k(  198) = (  -0.4166667  -0.4330127  -0.0741297), wk =   0.0138889
        k(  199) = (  -0.4166667  -0.4330127  -0.1111945), wk =   0.0138889
        k(  200) = (  -0.4166667  -0.4330127   0.1482593), wk =   0.0069444
        k(  201) = (   0.5000000  -0.0000000   0.0000000), wk =   0.0034722
        k(  202) = (   0.5000000  -0.0000000  -0.0370648), wk =   0.0069444
        k(  203) = (   0.5000000  -0.0000000  -0.0741297), wk =   0.0069444
        k(  204) = (   0.5000000  -0.0000000  -0.1111945), wk =   0.0069444
        k(  205) = (   0.5000000  -0.0000000   0.1482593), wk =   0.0034722
        k(  206) = (  -0.3333333  -0.4811252   0.0000000), wk =   0.0069444
        k(  207) = (   0.5833333  -0.0481125   0.0000000), wk =   0.0069444
        k(  208) = (  -0.3333333  -0.4811252  -0.0370648), wk =   0.0138889
        k(  209) = (   0.5833333  -0.0481125  -0.0370648), wk =   0.0138889
        k(  210) = (  -0.3333333  -0.4811252  -0.0741297), wk =   0.0138889
        k(  211) = (   0.5833333  -0.0481125  -0.0741297), wk =   0.0138889
        k(  212) = (  -0.3333333  -0.4811252  -0.1111945), wk =   0.0138889
        k(  213) = (   0.5833333  -0.0481125  -0.1111945), wk =   0.0138889
        k(  214) = (  -0.3333333  -0.4811252   0.1482593), wk =   0.0069444
        k(  215) = (   0.5833333  -0.0481125   0.1482593), wk =   0.0069444

                       cryst. coord.
        k(    1) = (   0.0000000   0.0000000   0.0000000), wk =   0.0017361
        k(    2) = (   0.0000000   0.0000000   0.1250000), wk =   0.0034722
        k(    3) = (   0.0000000   0.0000000   0.2500000), wk =   0.0034722
        k(    4) = (   0.0000000   0.0000000   0.3750000), wk =   0.0034722
        k(    5) = (   0.0000000   0.0000000  -0.5000000), wk =   0.0017361
        k(    6) = (   0.0000000   0.0833333   0.0000000), wk =   0.0034722
        k(    7) = (   0.0000000   0.0833333   0.1250000), wk =   0.0069444
        k(    8) = (   0.0000000   0.0833333   0.2500000), wk =   0.0069444
        k(    9) = (   0.0000000   0.0833333   0.3750000), wk =   0.0069444
        k(   10) = (   0.0000000   0.0833333  -0.5000000), wk =   0.0034722
        k(   11) = (   0.0000000   0.1666667   0.0000000), wk =   0.0034722
        k(   12) = (   0.0000000   0.1666667   0.1250000), wk =   0.0069444
        k(   13) = (   0.0000000   0.1666667   0.2500000), wk =   0.0069444
        k(   14) = (   0.0000000   0.1666667   0.3750000), wk =   0.0069444
        k(   15) = (   0.0000000   0.1666667  -0.5000000), wk =   0.0034722
        k(   16) = (   0.0000000   0.2500000   0.0000000), wk =   0.0034722
        k(   17) = (   0.0000000   0.2500000   0.1250000), wk =   0.0069444
        k(   18) = (   0.0000000   0.2500000   0.2500000), wk =   0.0069444
        k(   19) = (   0.0000000   0.2500000   0.3750000), wk =   0.0069444
        k(   20) = (   0.0000000   0.2500000  -0.5000000), wk =   0.0034722
        k(   21) = (   0.0000000   0.3333333   0.0000000), wk =   0.0034722
        k(   22) = (   0.0000000   0.3333333   0.1250000), wk =   0.0069444
        k(   23) = (   0.0000000   0.3333333   0.2500000), wk =   0.0069444
        k(   24) = (   0.0000000   0.3333333   0.3750000), wk =   0.0069444
        k(   25) = (   0.0000000   0.3333333  -0.5000000), wk =   0.0034722
        k(   26) = (   0.0000000   0.4166667   0.0000000), wk =   0.0034722
        k(   27) = (   0.0000000   0.4166667   0.1250000), wk =   0.0069444
        k(   28) = (   0.0000000   0.4166667   0.2500000), wk =   0.0069444
        k(   29) = (   0.0000000   0.4166667   0.3750000), wk =   0.0069444
        k(   30) = (   0.0000000   0.4166667  -0.5000000), wk =   0.0034722
        k(   31) = (   0.0000000  -0.5000000   0.0000000), wk =   0.0017361
        k(   32) = (   0.0000000  -0.5000000   0.1250000), wk =   0.0034722
        k(   33) = (   0.0000000  -0.5000000   0.2500000), wk =   0.0034722
        k(   34) = (   0.0000000  -0.5000000   0.3750000), wk =   0.0034722
        k(   35) = (   0.0000000  -0.5000000  -0.5000000), wk =   0.0017361
        k(   36) = (   0.0833333   0.0833333   0.0000000), wk =   0.0069444
        k(   37) = (   0.0833333   0.0833333   0.1250000), wk =   0.0138889
        k(   38) = (   0.0833333   0.0833333   0.2500000), wk =   0.0138889
        k(   39) = (   0.0833333   0.0833333   0.3750000), wk =   0.0138889
        k(   40) = (   0.0833333   0.0833333  -0.5000000), wk =   0.0069444
        k(   41) = (   0.0833333   0.1666667   0.0000000), wk =   0.0069444
        k(   42) = (   0.0833333   0.1666667   0.1250000), wk =   0.0138889
        k(   43) = (   0.0833333   0.1666667   0.2500000), wk =   0.0138889
        k(   44) = (   0.0833333   0.1666667   0.3750000), wk =   0.0138889
        k(   45) = (   0.0833333   0.1666667  -0.5000000), wk =   0.0069444
        k(   46) = (   0.0833333   0.2500000   0.0000000), wk =   0.0069444
        k(   47) = (   0.0833333   0.2500000   0.1250000), wk =   0.0138889
        k(   48) = (   0.0833333   0.2500000   0.2500000), wk =   0.0138889
        k(   49) = (   0.0833333   0.2500000   0.3750000), wk =   0.0138889
        k(   50) = (   0.0833333   0.2500000  -0.5000000), wk =   0.0069444
        k(   51) = (   0.0833333   0.3333333   0.0000000), wk =   0.0069444
        k(   52) = (   0.0833333   0.3333333   0.1250000), wk =   0.0138889
        k(   53) = (   0.0833333   0.3333333   0.2500000), wk =   0.0138889
        k(   54) = (   0.0833333   0.3333333   0.3750000), wk =   0.0138889
        k(   55) = (   0.0833333   0.3333333  -0.5000000), wk =   0.0069444
        k(   56) = (   0.0833333   0.4166667   0.0000000), wk =   0.0069444
        k(   57) = (   0.0833333   0.4166667   0.1250000), wk =   0.0138889
        k(   58) = (   0.0833333   0.4166667   0.2500000), wk =   0.0138889
        k(   59) = (   0.0833333   0.4166667   0.3750000), wk =   0.0138889
        k(   60) = (   0.0833333   0.4166667  -0.5000000), wk =   0.0069444
        k(   61) = (   0.1666667   0.1666667   0.0000000), wk =   0.0069444
        k(   62) = (   0.1666667   0.1666667   0.1250000), wk =   0.0138889
        k(   63) = (   0.1666667   0.1666667   0.2500000), wk =   0.0138889
        k(   64) = (   0.1666667   0.1666667   0.3750000), wk =   0.0138889
        k(   65) = (   0.1666667   0.1666667  -0.5000000), wk =   0.0069444
        k(   66) = (   0.1666667   0.2500000   0.0000000), wk =   0.0069444
        k(   67) = (   0.1666667   0.2500000   0.1250000), wk =   0.0138889
        k(   68) = (   0.1666667   0.2500000   0.2500000), wk =   0.0138889
        k(   69) = (   0.1666667   0.2500000   0.3750000), wk =   0.0138889
        k(   70) = (   0.1666667   0.2500000  -0.5000000), wk =   0.0069444
        k(   71) = (   0.1666667   0.3333333   0.0000000), wk =   0.0069444
        k(   72) = (   0.1666667   0.3333333   0.1250000), wk =   0.0138889
        k(   73) = (   0.1666667   0.3333333   0.2500000), wk =   0.0138889
        k(   74) = (   0.1666667   0.3333333   0.3750000), wk =   0.0138889
        k(   75) = (   0.1666667   0.3333333  -0.5000000), wk =   0.0069444
        k(   76) = (   0.1666667   0.4166667   0.0000000), wk =   0.0034722
        k(   77) = (   0.1666667   0.4166667   0.1250000), wk =   0.0069444
        k(   78) = (   0.1666667   0.4166667   0.2500000), wk =   0.0069444
        k(   79) = (   0.1666667   0.4166667   0.3750000), wk =   0.0069444
        k(   80) = (   0.1666667   0.4166667  -0.5000000), wk =   0.0034722
        k(   81) = (   0.2500000   0.2500000   0.0000000), wk =   0.0069444
        k(   82) = (   0.2500000   0.2500000   0.1250000), wk =   0.0138889
        k(   83) = (   0.2500000   0.2500000   0.2500000), wk =   0.0138889
        k(   84) = (   0.2500000   0.2500000   0.3750000), wk =   0.0138889
        k(   85) = (   0.2500000   0.2500000  -0.5000000), wk =   0.0069444
        k(   86) = (   0.2500000   0.3333333   0.0000000), wk =   0.0069444
        k(   87) = (   0.2500000   0.3333333   0.1250000), wk =   0.0138889
        k(   88) = (   0.2500000   0.3333333   0.2500000), wk =   0.0138889
        k(   89) = (   0.2500000   0.3333333   0.3750000), wk =   0.0138889
        k(   90) = (   0.2500000   0.3333333  -0.5000000), wk =   0.0069444
        k(   91) = (   0.3333333   0.3333333   0.0000000), wk =   0.0034722
        k(   92) = (   0.3333333   0.3333333   0.1250000), wk =   0.0069444
        k(   93) = (   0.3333333   0.3333333   0.2500000), wk =   0.0069444
        k(   94) = (   0.3333333   0.3333333   0.3750000), wk =   0.0069444
        k(   95) = (   0.3333333   0.3333333  -0.5000000), wk =   0.0034722
        k(   96) = (  -0.0833333  -0.0000000   0.0000000), wk =   0.0069444
        k(   97) = (  -0.0833333  -0.0000000  -0.1250000), wk =   0.0138889
        k(   98) = (  -0.0833333  -0.0000000  -0.2500000), wk =   0.0138889
        k(   99) = (  -0.0833333  -0.0000000  -0.3750000), wk =   0.0138889
        k(  100) = (  -0.0833333  -0.0000000   0.5000000), wk =   0.0069444
        k(  101) = (  -0.1666667  -0.0000000   0.0000000), wk =   0.0069444
        k(  102) = (  -0.1666667  -0.0000000  -0.1250000), wk =   0.0138889
        k(  103) = (  -0.1666667  -0.0000000  -0.2500000), wk =   0.0138889
        k(  104) = (  -0.1666667  -0.0000000  -0.3750000), wk =   0.0138889
        k(  105) = (  -0.1666667  -0.0000000   0.5000000), wk =   0.0069444
        k(  106) = (  -0.2500000   0.0000000   0.0000000), wk =   0.0069444
        k(  107) = (  -0.2500000   0.0000000  -0.1250000), wk =   0.0138889
        k(  108) = (  -0.2500000   0.0000000  -0.2500000), wk =   0.0138889
        k(  109) = (  -0.2500000   0.0000000  -0.3750000), wk =   0.0138889
        k(  110) = (  -0.2500000   0.0000000   0.5000000), wk =   0.0069444
        k(  111) = (  -0.3333333  -0.0000000   0.0000000), wk =   0.0069444
        k(  112) = (  -0.3333333  -0.0000000  -0.1250000), wk =   0.0138889
        k(  113) = (  -0.3333333  -0.0000000  -0.2500000), wk =   0.0138889
        k(  114) = (  -0.3333333  -0.0000000  -0.3750000), wk =   0.0138889
        k(  115) = (  -0.3333333  -0.0000000   0.5000000), wk =   0.0069444
        k(  116) = (  -0.4166667   0.0000000   0.0000000), wk =   0.0069444
        k(  117) = (  -0.4166667   0.0000000  -0.1250000), wk =   0.0138889
        k(  118) = (  -0.4166667   0.0000000  -0.2500000), wk =   0.0138889
        k(  119) = (  -0.4166667   0.0000000  -0.3750000), wk =   0.0138889
        k(  120) = (  -0.4166667   0.0000000   0.5000000), wk =   0.0069444
        k(  121) = (   0.5000000   0.0000000   0.0000000), wk =   0.0034722
        k(  122) = (   0.5000000   0.0000000  -0.1250000), wk =   0.0069444
        k(  123) = (   0.5000000   0.0000000  -0.2500000), wk =   0.0069444
        k(  124) = (   0.5000000   0.0000000  -0.3750000), wk =   0.0069444
        k(  125) = (   0.5000000   0.0000000   0.5000000), wk =   0.0034722
        k(  126) = (   0.1666667  -0.0833333   0.0000000), wk =   0.0034722
        k(  127) = (   0.1666667  -0.0833333  -0.1250000), wk =   0.0069444
        k(  128) = (   0.1666667  -0.0833333  -0.2500000), wk =   0.0069444
        k(  129) = (   0.1666667  -0.0833333  -0.3750000), wk =   0.0069444
        k(  130) = (   0.1666667  -0.0833333   0.5000000), wk =   0.0034722
        k(  131) = (  -0.1666667  -0.0833333   0.0000000), wk =   0.0069444
        k(  132) = (   0.2500000  -0.1666667   0.0000000), wk =   0.0069444
        k(  133) = (  -0.1666667  -0.0833333  -0.1250000), wk =   0.0138889
        k(  134) = (   0.2500000  -0.1666667  -0.1250000), wk =   0.0138889
        k(  135) = (  -0.1666667  -0.0833333  -0.2500000), wk =   0.0138889
        k(  136) = (   0.2500000  -0.1666667  -0.2500000), wk =   0.0138889
        k(  137) = (  -0.1666667  -0.0833333  -0.3750000), wk =   0.0138889
        k(  138) = (   0.2500000  -0.1666667  -0.3750000), wk =   0.0138889
        k(  139) = (  -0.1666667  -0.0833333   0.5000000), wk =   0.0069444
        k(  140) = (   0.2500000  -0.1666667   0.5000000), wk =   0.0069444
        k(  141) = (  -0.2500000  -0.0833333   0.0000000), wk =   0.0069444
        k(  142) = (   0.3333333  -0.2500000   0.0000000), wk =   0.0069444
        k(  143) = (  -0.2500000  -0.0833333  -0.1250000), wk =   0.0138889
        k(  144) = (   0.3333333  -0.2500000  -0.1250000), wk =   0.0138889
        k(  145) = (  -0.2500000  -0.0833333  -0.2500000), wk =   0.0138889
        k(  146) = (   0.3333333  -0.2500000  -0.2500000), wk =   0.0138889
        k(  147) = (  -0.2500000  -0.0833333  -0.3750000), wk =   0.0138889
        k(  148) = (   0.3333333  -0.2500000  -0.3750000), wk =   0.0138889
        k(  149) = (  -0.2500000  -0.0833333   0.5000000), wk =   0.0069444
        k(  150) = (   0.3333333  -0.2500000   0.5000000), wk =   0.0069444
        k(  151) = (  -0.3333333  -0.0833333   0.0000000), wk =   0.0069444
        k(  152) = (   0.4166667  -0.3333333   0.0000000), wk =   0.0069444
        k(  153) = (  -0.3333333  -0.0833333  -0.1250000), wk =   0.0138889
        k(  154) = (   0.4166667  -0.3333333  -0.1250000), wk =   0.0138889
        k(  155) = (  -0.3333333  -0.0833333  -0.2500000), wk =   0.0138889
        k(  156) = (   0.4166667  -0.3333333  -0.2500000), wk =   0.0138889
        k(  157) = (  -0.3333333  -0.0833333  -0.3750000), wk =   0.0138889
        k(  158) = (   0.4166667  -0.3333333  -0.3750000), wk =   0.0138889
        k(  159) = (  -0.3333333  -0.0833333   0.5000000), wk =   0.0069444
        k(  160) = (   0.4166667  -0.3333333   0.5000000), wk =   0.0069444
        k(  161) = (  -0.4166667  -0.0833333   0.0000000), wk =   0.0069444
        k(  162) = (   0.5000000  -0.4166667   0.0000000), wk =   0.0069444
        k(  163) = (  -0.4166667  -0.0833333  -0.1250000), wk =   0.0138889
        k(  164) = (   0.5000000  -0.4166667  -0.1250000), wk =   0.0138889
        k(  165) = (  -0.4166667  -0.0833333  -0.2500000), wk =   0.0138889
        k(  166) = (   0.5000000  -0.4166667  -0.2500000), wk =   0.0138889
        k(  167) = (  -0.4166667  -0.0833333  -0.3750000), wk =   0.0138889
        k(  168) = (   0.5000000  -0.4166667  -0.3750000), wk =   0.0138889
        k(  169) = (  -0.4166667  -0.0833333   0.5000000), wk =   0.0069444
        k(  170) = (   0.5000000  -0.4166667   0.5000000), wk =   0.0069444
        k(  171) = (   0.3333333  -0.1666667   0.0000000), wk =   0.0034722
        k(  172) = (   0.3333333  -0.1666667  -0.1250000), wk =   0.0069444
        k(  173) = (   0.3333333  -0.1666667  -0.2500000), wk =   0.0069444
        k(  174) = (   0.3333333  -0.1666667  -0.3750000), wk =   0.0069444
        k(  175) = (   0.3333333  -0.1666667   0.5000000), wk =   0.0034722
        k(  176) = (  -0.2500000  -0.1666667   0.0000000), wk =   0.0069444
        k(  177) = (   0.4166667  -0.2500000   0.0000000), wk =   0.0069444
        k(  178) = (  -0.2500000  -0.1666667  -0.1250000), wk =   0.0138889
        k(  179) = (   0.4166667  -0.2500000  -0.1250000), wk =   0.0138889
        k(  180) = (  -0.2500000  -0.1666667  -0.2500000), wk =   0.0138889
        k(  181) = (   0.4166667  -0.2500000  -0.2500000), wk =   0.0138889
        k(  182) = (  -0.2500000  -0.1666667  -0.3750000), wk =   0.0138889
        k(  183) = (   0.4166667  -0.2500000  -0.3750000), wk =   0.0138889
        k(  184) = (  -0.2500000  -0.1666667   0.5000000), wk =   0.0069444
        k(  185) = (   0.4166667  -0.2500000   0.5000000), wk =   0.0069444
        k(  186) = (  -0.3333333  -0.1666667   0.0000000), wk =   0.0069444
        k(  187) = (   0.5000000  -0.3333333   0.0000000), wk =   0.0069444
        k(  188) = (  -0.3333333  -0.1666667  -0.1250000), wk =   0.0138889
        k(  189) = (   0.5000000  -0.3333333  -0.1250000), wk =   0.0138889
        k(  190) = (  -0.3333333  -0.1666667  -0.2500000), wk =   0.0138889
        k(  191) = (   0.5000000  -0.3333333  -0.2500000), wk =   0.0138889
        k(  192) = (  -0.3333333  -0.1666667  -0.3750000), wk =   0.0138889
        k(  193) = (   0.5000000  -0.3333333  -0.3750000), wk =   0.0138889
        k(  194) = (  -0.3333333  -0.1666667   0.5000000), wk =   0.0069444
        k(  195) = (   0.5000000  -0.3333333   0.5000000), wk =   0.0069444
        k(  196) = (  -0.4166667  -0.1666667   0.0000000), wk =   0.0069444
        k(  197) = (  -0.4166667  -0.1666667  -0.1250000), wk =   0.0138889
        k(  198) = (  -0.4166667  -0.1666667  -0.2500000), wk =   0.0138889
        k(  199) = (  -0.4166667  -0.1666667  -0.3750000), wk =   0.0138889
        k(  200) = (  -0.4166667  -0.1666667   0.5000000), wk =   0.0069444
        k(  201) = (   0.5000000  -0.2500000   0.0000000), wk =   0.0034722
        k(  202) = (   0.5000000  -0.2500000  -0.1250000), wk =   0.0069444
        k(  203) = (   0.5000000  -0.2500000  -0.2500000), wk =   0.0069444
        k(  204) = (   0.5000000  -0.2500000  -0.3750000), wk =   0.0069444
        k(  205) = (   0.5000000  -0.2500000   0.5000000), wk =   0.0034722
        k(  206) = (  -0.3333333  -0.2500000   0.0000000), wk =   0.0069444
        k(  207) = (   0.5833333  -0.3333333   0.0000000), wk =   0.0069444
        k(  208) = (  -0.3333333  -0.2500000  -0.1250000), wk =   0.0138889
        k(  209) = (   0.5833333  -0.3333333  -0.1250000), wk =   0.0138889
        k(  210) = (  -0.3333333  -0.2500000  -0.2500000), wk =   0.0138889
        k(  211) = (   0.5833333  -0.3333333  -0.2500000), wk =   0.0138889
        k(  212) = (  -0.3333333  -0.2500000  -0.3750000), wk =   0.0138889
        k(  213) = (   0.5833333  -0.3333333  -0.3750000), wk =   0.0138889
        k(  214) = (  -0.3333333  -0.2500000   0.5000000), wk =   0.0069444
        k(  215) = (   0.5833333  -0.3333333   0.5000000), wk =   0.0069444

     Dense  grid:    46293 G-vectors     FFT dimensions: (  32,  32, 108)

     Smooth grid:    16239 G-vectors     FFT dimensions: (  24,  24,  80)

     Dynamical RAM for                 wfc:       0.37 MB

     Dynamical RAM for     wfc (w. buffer):      80.92 MB

     Dynamical RAM for           str. fact:       0.71 MB

     Dynamical RAM for           local pot:       0.00 MB

     Dynamical RAM for          nlocal pot:       1.00 MB

     Dynamical RAM for                qrad:       0.48 MB

     Dynamical RAM for          rho,v,vnew:       4.65 MB

     Dynamical RAM for               rhoin:       1.55 MB

     Dynamical RAM for            rho*nmix:      11.30 MB

     Dynamical RAM for           G-vectors:       2.77 MB

     Dynamical RAM for          h,s,v(r/c):       0.03 MB

     Dynamical RAM for          <psi|beta>:       0.01 MB

     Dynamical RAM for                 psi:       0.75 MB

     Dynamical RAM for                hpsi:       0.75 MB

     Dynamical RAM for                spsi:       0.75 MB

     Dynamical RAM for      wfcinit/wfcrot:       1.01 MB

     Dynamical RAM for           addusdens:      33.20 MB

     Dynamical RAM for          addusforce:      37.79 MB

     Dynamical RAM for         addusstress:      35.32 MB

     Estimated static dynamical RAM per process >     109.01 MB

     Estimated max dynamical RAM per process >     146.81 MB

     Check: negative core charge=   -0.000001

     Initial potential from superposition of free atoms

     starting charge   15.99983, renormalised to   16.00000
     Starting wfcs are   16 randomized atomic wfcs

     total cpu time spent up to now is       38.5 secs

     Self-consistent Calculation

     iteration #  1     ecut=    55.00 Ry     beta= 0.70
     Davidson diagonalization with overlap
     ethr =  1.00E-02,  avg # of iterations =  2.8

     total cpu time spent up to now is       88.6 secs

     total energy              =     -49.66319237 Ry
     estimated scf accuracy    <       0.37660011 Ry

     iteration #  2     ecut=    55.00 Ry     beta= 0.70
     Davidson diagonalization with overlap
     ethr =  2.35E-03,  avg # of iterations =  2.4

     total cpu time spent up to now is      146.8 secs

     total energy              =     -49.71398109 Ry
     estimated scf accuracy    <       0.00433293 Ry

     iteration #  3     ecut=    55.00 Ry     beta= 0.70
     Davidson diagonalization with overlap
     ethr =  2.71E-05,  avg # of iterations =  7.1

     total cpu time spent up to now is      230.5 secs

     total energy              =     -49.71438388 Ry
     estimated scf accuracy    <       0.00030854 Ry

     iteration #  4     ecut=    55.00 Ry     beta= 0.70
     Davidson diagonalization with overlap
     c_bands:  1 eigenvalues not converged
     ethr =  1.93E-06,  avg # of iterations =  3.8

     total cpu time spent up to now is      286.6 secs

     total energy              =     -49.71440231 Ry
     estimated scf accuracy    <       0.00000209 Ry

     iteration #  5     ecut=    55.00 Ry     beta= 0.70
     Davidson diagonalization with overlap
     ethr =  1.30E-08,  avg # of iterations =  3.0

     total cpu time spent up to now is      322.6 secs

     total energy              =     -49.71440349 Ry
     estimated scf accuracy    <       0.00000010 Ry

     iteration #  6     ecut=    55.00 Ry     beta= 0.70
     Davidson diagonalization with overlap
     ethr =  6.18E-10,  avg # of iterations =  2.0

     total cpu time spent up to now is      355.7 secs

     total energy              =     -49.71440351 Ry
     estimated scf accuracy    <       0.00000002 Ry

     iteration #  7     ecut=    55.00 Ry     beta= 0.70
     Davidson diagonalization with overlap
     ethr =  1.56E-10,  avg # of iterations =  1.7

     total cpu time spent up to now is      444.8 secs

     End of self-consistent calculation

          k = 0.0000 0.0000 0.0000 (  2101 PWs)   bands (ev):

   -14.7009 -14.6556  -3.0623  -2.4984   1.7284   1.7298   1.7326   1.7341
     7.9712  11.4908  13.0936  13.0984

     occupation numbers 
     1.0000   1.0000   1.0000   1.0000   1.0000   1.0000   1.0000   1.0000
    -0.0000  -0.0000  -0.0000  -0.0000

          k = 0.0000 0.0000 0.0371 (  2101 PWs)   bands (ev):

   -14.6992 -14.6573  -3.0427  -2.5220   1.7284   1.7298   1.7327   1.7341
     8.0634  11.2441  13.0960  13.0980

     occupation numbers 
     1.0000   1.0000   1.0000   1.0000   1.0000   1.0000   1.0000   1.0000
    -0.0000  -0.0000  -0.0000  -0.0000

          k = 0.0000 0.0000 0.0741 (  2077 PWs)   bands (ev):

   -14.6943 -14.6623  -2.9861  -2.5881   1.7286   1.7296   1.7329   1.7339
     8.3338  10.6650  13.0933  13.0986

     occupation numbers 
     1.0000   1.0000   1.0000   1.0000   1.0000   1.0000   1.0000   1.0000
    -0.0000  -0.0000  -0.0000  -0.0000

          k = 0.0000 0.0000 0.1112 (  2071 PWs)   bands (ev):

   -14.6870 -14.6697  -2.8993  -2.6843   1.7289   1.7294   1.7332   1.7337
     8.7647   9.9836  13.0943  13.0967

     occupation numbers 
     1.0000   1.0000   1.0000   1.0000   1.0000   1.0000   1.0000   1.0000
    -0.0000  -0.0000  -0.0000  -0.0000

          k = 0.0000 0.0000-0.1483 (  2066 PWs)   bands (ev):

   -14.6784 -14.6784  -2.7937  -2.7937   1.7291   1.7291   1.7334   1.7334
     9.3282   9.3282  13.0954  13.0962

     occupation numbers 
     1.0000   1.0000   1.0000   1.0000   1.0000   1.0000   1.0000   1.0000
    -0.0000  -0.0000  -0.0000  -0.0000

          k = 0.0000 0.0962 0.0000 (  2081 PWs)   bands (ev):

   -14.5374 -14.4927  -2.8649  -2.3057   1.0793   1.0825   1.3953   1.3978
     8.1836  11.6856  13.1499  13.1748

     occupation numbers 
     1.0000   1.0000   1.0000   1.0000   1.0000   1.0000   1.0000   1.0000
    -0.0000  -0.0000  -0.0000  -0.0000

          k = 0.0000 0.0962 0.0371 (  2081 PWs)   bands (ev):

   -14.5357 -14.4944  -2.8454  -2.3291   1.0795   1.0823   1.3954   1.3977
     8.2754  11.4395  13.1543  13.1744

     occupation numbers 
     1.0000   1.0000   1.0000   1.0000   1.0000   1.0000   1.0000   1.0000
    -0.0000  -0.0000  -0.0000  -0.0000

          k = 0.0000 0.0962 0.0741 (  2083 PWs)   bands (ev):

   -14.5309 -14.4993  -2.7892  -2.3946   1.0798   1.0820   1.3957   1.3974
     8.5444  10.8631  13.1607  13.1733

     occupation numbers 
     1.0000   1.0000   1.0000   1.0000   1.0000   1.0000   1.0000   1.0000
    -0.0000  -0.0000  -0.0000  -0.0000

          k = 0.0000 0.0962 0.1112 (  2075 PWs)   bands (ev):

   -14.5237 -14.5066  -2.7031  -2.4899   1.0803   1.0815   1.3961   1.3970
     8.9730  10.1855  13.1653  13.1714

     occupation numbers 
     1.0000   1.0000   1.0000   1.0000   1.0000   1.0000   1.0000   1.0000
    -0.0000  -0.0000  -0.0000  -0.0000

          k = 0.0000 0.0962-0.1483 (  2074 PWs)   bands (ev):

   -14.5152 -14.5152  -2.5984  -2.5984   1.0809   1.0809   1.3966   1.3966
     9.5336   9.5336  13.1686  13.1686

     occupation numbers 
     1.0000   1.0000   1.0000   1.0000   1.0000   1.0000   1.0000   1.0000
    -0.0000  -0.0000  -0.0000  -0.0000

          k = 0.0000 0.1925 0.0000 (  2077 PWs)   bands (ev):

   -14.0487 -14.0057  -2.2775  -1.7333  -0.5541  -0.5473   0.6055   0.6092
     8.8215  12.2530  13.0744  13.1288

     occupation numbers 
     1.0000   1.0000   1.0000   1.0000   1.0000   1.0000   1.0000   1.0000
    -0.0000  -0.0000  -0.0000  -0.0000

          k = 0.0000 0.1925 0.0371 (  2066 PWs)   bands (ev):

   -14.0470 -14.0073  -2.2585  -1.7560  -0.5539  -0.5476   0.6057   0.6090
     8.9116  12.0112  13.0858  13.1281

     occupation numbers 
     1.0000   1.0000   1.0000   1.0000   1.0000   1.0000   1.0000   1.0000
    -0.0000  -0.0000  -0.0000  -0.0000

          k = 0.0000 0.1925 0.0741 (  2069 PWs)   bands (ev):

   -14.0424 -14.0120  -2.2037  -1.8196  -0.5531  -0.5483   0.6061   0.6086
     9.1759  11.4484  13.1001  13.1258

     occupation numbers 
     1.0000   1.0000   1.0000   1.0000   1.0000   1.0000   1.0000   1.0000
    -0.0000  -0.0000  -0.0000  -0.0000

          k = 0.0000 0.1925 0.1112 (  2062 PWs)   bands (ev):

   -14.0355 -14.0191  -2.1198  -1.9123  -0.5520  -0.5494   0.6066   0.6081
     9.5969  10.7859  13.1093  13.1217

     occupation numbers 
     1.0000   1.0000   1.0000   1.0000   1.0000   1.0000   1.0000   1.0000
    -0.0000  -0.0000  -0.0000  -0.0000

          k = 0.0000 0.1925-0.1483 (  2072 PWs)   bands (ev):

   -14.0273 -14.0273  -2.0179  -2.0179  -0.5507  -0.5507   0.6073   0.6073
    10.1471  10.1471  13.1162  13.1162

     occupation numbers 
     1.0000   1.0000   1.0000   1.0000   1.0000   1.0000   1.0000   1.0000
    -0.0000  -0.0000  -0.0000  -0.0000

          k = 0.0000 0.2887 0.0000 (  2052 PWs)   bands (ev):

   -13.2405 -13.2003  -2.6468  -2.6354  -1.3181  -0.8018  -0.2715  -0.2671
     9.8820  11.9184  12.0377  12.7845

     occupation numbers 
     1.0000   1.0000   1.0000   1.0000   1.0000   1.0000   1.0000   1.0000
    -0.0000  -0.0000  -0.0000  -0.0000

          k = 0.0000 0.2887 0.0371 (  2051 PWs)   bands (ev):

   -13.2390 -13.2019  -2.6464  -2.6358  -1.3000  -0.8232  -0.2714  -0.2673
     9.9678  11.9183  12.0273  12.7677

     occupation numbers 
     1.0000   1.0000   1.0000   1.0000   1.0000   1.0000   1.0000   1.0000
    -0.0000  -0.0000  -0.0000  -0.0000

          k = 0.0000 0.2887 0.0741 (  2056 PWs)   bands (ev):

   -13.2347 -13.2063  -2.6451  -2.6371  -1.2478  -0.8834  -0.2709  -0.2678
    10.2189  11.8846  12.0066  12.5406

     occupation numbers 
     1.0000   1.0000   1.0000   1.0000   1.0000   1.0000   1.0000   1.0000
    -0.0000  -0.0000  -0.0000  -0.0000

          k = 0.0000 0.2887 0.1112 (  2053 PWs)   bands (ev):

   -13.2282 -13.2128  -2.6433  -2.6389  -1.1681  -0.9710  -0.2702  -0.2685
    10.6152  11.6281  12.0195  12.1914

     occupation numbers 
     1.0000   1.0000   1.0000   1.0000   1.0000   1.0000   1.0000   1.0000
    -0.0000  -0.0000  -0.0000  -0.0000

          k = 0.0000 0.2887-0.1483 (  2056 PWs)   bands (ev):

   -13.2205 -13.2205  -2.6411  -2.6411  -1.0712  -1.0712  -0.2693  -0.2693
    11.1181  11.1182  12.0692  12.0692

     occupation numbers 
     1.0000   1.0000   1.0000   1.0000   1.0000   1.0000   1.0000   1.0000
    -0.0000  -0.0000  -0.0000  -0.0000

          k = 0.0000 0.3849 0.0000 (  2044 PWs)   bands (ev):

   -12.1251 -12.0886  -4.8439  -4.8273  -1.0028  -0.9980  -0.0334   0.4344
     9.5905   9.8065  11.3483  12.4530

     occupation numbers 
     1.0000   1.0000   1.0000   1.0000   1.0000   1.0000   1.0000   1.0000
    -0.0000  -0.0000  -0.0000  -0.0000

          k = 0.0000 0.3849 0.0371 (  2039 PWs)   bands (ev):

   -12.1237 -12.0901  -4.8433  -4.8280  -1.0026  -0.9982  -0.0169   0.4152
     9.5960   9.7959  11.4347  12.4534

     occupation numbers 
     1.0000   1.0000   1.0000   1.0000   1.0000   1.0000   1.0000   1.0000
    -0.0000  -0.0000  -0.0000  -0.0000

          k = 0.0000 0.3849 0.0741 (  2047 PWs)   bands (ev):

   -12.1198 -12.0940  -4.8415  -4.8298  -1.0021  -0.9987   0.0308   0.3612
     9.6132   9.7670  11.6827  12.4529

     occupation numbers 
     1.0000   1.0000   1.0000   1.0000   1.0000   1.0000   1.0000   1.0000
    -0.0000  -0.0000  -0.0000  -0.0000

          k = 0.0000 0.3849 0.1112 (  2048 PWs)   bands (ev):

   -12.1139 -12.1000  -4.8389  -4.8325  -1.0014  -0.9995   0.1034   0.2821
     9.6428   9.7265  12.0526  12.4422

     occupation numbers 
     1.0000   1.0000   1.0000   1.0000   1.0000   1.0000   1.0000   1.0000
    -0.0000  -0.0000  -0.0000  -0.0000

          k = 0.0000 0.3849-0.1483 (  2048 PWs)   bands (ev):

   -12.1070 -12.1070  -4.8357  -4.8357  -1.0005  -1.0005   0.1915   0.1915
     9.6825   9.6825  12.3703  12.3706

     occupation numbers 
     1.0000   1.0000   1.0000   1.0000   1.0000   1.0000   1.0000   1.0000
    -0.0000  -0.0000  -0.0000  -0.0000

          k = 0.0000 0.4811 0.0000 (  2036 PWs)   bands (ev):

   -10.7337 -10.7021  -6.9372  -6.9160  -1.4745  -1.4694   1.4282   1.7959
     7.4407   7.7130  12.2026  12.2597

     occupation numbers 
     1.0000   1.0000   1.0000   1.0000   1.0000   1.0000   1.0000   1.0000
    -0.0000  -0.0000  -0.0000  -0.0000

          k = 0.0000 0.4811 0.0371 (  2039 PWs)   bands (ev):

   -10.7325 -10.7034  -6.9364  -6.9168  -1.4743  -1.4696   1.4415   1.7812
     7.4491   7.7007  12.2052  12.2581

     occupation numbers 
     1.0000   1.0000   1.0000   1.0000   1.0000   1.0000   1.0000   1.0000
    -0.0000  -0.0000  -0.0000  -0.0000

          k = 0.0000 0.4811 0.0741 (  2030 PWs)   bands (ev):

   -10.7291 -10.7068  -6.9341  -6.9191  -1.4738  -1.4701   1.4799   1.7397
     7.4739   7.6665  12.2124  12.2531

     occupation numbers 
     1.0000   1.0000   1.0000   1.0000   1.0000   1.0000   1.0000   1.0000
    -0.0000  -0.0000  -0.0000  -0.0000

          k = 0.0000 0.4811 0.1112 (  2030 PWs)   bands (ev):

   -10.7240 -10.7119  -6.9307  -6.9226  -1.4729  -1.4710   1.5379   1.6785
     7.5134   7.6177  12.2226  12.2447

     occupation numbers 
     1.0000   1.0000   1.0000   1.0000   1.0000   1.0000   1.0000   1.0000
    -0.0000  -0.0000  -0.0000  -0.0000

          k = 0.0000 0.4811-0.1483 (  2040 PWs)   bands (ev):

   -10.7180 -10.7180  -6.9266  -6.9266  -1.4720  -1.4720   1.6075   1.6075
     7.5636   7.5636  12.2340  12.2340

     occupation numbers 
     1.0000   1.0000   1.0000   1.0000   1.0000   1.0000   1.0000   1.0000
    -0.0000  -0.0000  -0.0000  -0.0000

          k = 0.0000-0.5774 0.0000 (  2020 PWs)   bands (ev):

    -9.4722  -9.4572  -8.4276  -8.4156  -1.6364  -1.6312   2.3582   2.5310
     6.3739   6.6118  12.1204  12.1863

     occupation numbers 
     1.0000   1.0000   1.0000   1.0000   1.0000   1.0000   1.0000   1.0000
    -0.0000  -0.0000  -0.0000  -0.0000

          k = 0.0000-0.5774 0.0371 (  2012 PWs)   bands (ev):

    -9.4716  -9.4578  -8.4271  -8.4161  -1.6362  -1.6314   2.3652   2.5250
     6.3800   6.5997  12.1229  12.1837

     occupation numbers 
     1.0000   1.0000   1.0000   1.0000   1.0000   1.0000   1.0000   1.0000
    -0.0000  -0.0000  -0.0000  -0.0000

          k = 0.0000-0.5774 0.0741 (  2018 PWs)   bands (ev):

    -9.4700  -9.4594  -8.4259  -8.4174  -1.6356  -1.6320   2.3850   2.5074
     6.3987   6.5668  12.1299  12.1765

     occupation numbers 
     1.0000   1.0000   1.0000   1.0000   1.0000   1.0000   1.0000   1.0000
    -0.0000  -0.0000  -0.0000  -0.0000

          k = 0.0000-0.5774 0.1112 (  2008 PWs)   bands (ev):

    -9.4675  -9.4617  -8.4240  -8.4194  -1.6348  -1.6328   2.4142   2.4805
     6.4302   6.5211  12.1405  12.1658

     occupation numbers 
     1.0000   1.0000   1.0000   1.0000   1.0000   1.0000   1.0000   1.0000
    -0.0000  -0.0000  -0.0000  -0.0000

          k = 0.0000-0.5774-0.1483 (  2004 PWs)   bands (ev):

    -9.4646  -9.4646  -8.4218  -8.4218  -1.6338  -1.6338   2.4478   2.4478
     6.4727   6.4727  12.1531  12.1531

     occupation numbers 
     1.0000   1.0000   1.0000   1.0000   1.0000   1.0000   1.0000   1.0000
    -0.0000  -0.0000  -0.0000  -0.0000

          k = 0.0833 0.1443 0.0000 (  2083 PWs)   bands (ev):

   -14.2113 -14.1677  -2.4724  -1.9231   0.0494   0.0526   0.7207   0.7228
     8.6093  12.0701  13.4280  13.4783

     occupation numbers 
     1.0000   1.0000   1.0000   1.0000   1.0000   1.0000   1.0000   1.0000
    -0.0000  -0.0000  -0.0000  -0.0000

          k = 0.0833 0.1443 0.0371 (  2068 PWs)   bands (ev):

   -14.2096 -14.1694  -2.4532  -1.9460   0.0496   0.0525   0.7208   0.7228
     8.7000  11.8266  13.4378  13.4778

     occupation numbers 
     1.0000   1.0000   1.0000   1.0000   1.0000   1.0000   1.0000   1.0000
    -0.0000  -0.0000  -0.0000  -0.0000

          k = 0.0833 0.1443 0.0741 (  2071 PWs)   bands (ev):

   -14.2050 -14.1742  -2.3979  -2.0103   0.0499   0.0521   0.7210   0.7225
     8.9660  11.2574  13.4518  13.4755

     occupation numbers 
     1.0000   1.0000   1.0000   1.0000   1.0000   1.0000   1.0000   1.0000
    -0.0000  -0.0000  -0.0000  -0.0000

          k = 0.0833 0.1443 0.1112 (  2072 PWs)   bands (ev):

   -14.1979 -14.1813  -2.3133  -2.1038   0.0504   0.0516   0.7214   0.7222
     9.3900  10.5883  13.4611  13.4721

     occupation numbers 
     1.0000   1.0000   1.0000   1.0000   1.0000   1.0000   1.0000   1.0000
    -0.0000  -0.0000  -0.0000  -0.0000

          k = 0.0833 0.1443-0.1483 (  2070 PWs)   bands (ev):

   -14.1896 -14.1896  -2.2104  -2.2104   0.0510   0.0510   0.7218   0.7218
     9.9441   9.9441  13.4674  13.4675

     occupation numbers 
     1.0000   1.0000   1.0000   1.0000   1.0000   1.0000   1.0000   1.0000
    -0.0000  -0.0000  -0.0000  -0.0000

          k = 0.0833 0.2406 0.0000 (  2058 PWs)   bands (ev):

   -13.5629 -13.5216  -1.6979  -1.6570  -1.6496  -1.1698  -0.2736  -0.2693
     9.4603  12.6995  12.8144  13.0103

     occupation numbers 
     1.0000   1.0000   1.0000   1.0000   1.0000   1.0000   1.0000   1.0000
    -0.0000  -0.0000  -0.0000  -0.0000

          k = 0.0833 0.2406 0.0371 (  2056 PWs)   bands (ev):

   -13.5613 -13.5232  -1.6795  -1.6568  -1.6498  -1.1918  -0.2734  -0.2694
     9.5485  12.5287  12.8116  12.9458

     occupation numbers 
     1.0000   1.0000   1.0000   1.0000   1.0000   1.0000   1.0000   1.0000
    -0.0000  -0.0000  -0.0000  -0.0000

          k = 0.0833 0.2406 0.0741 (  2049 PWs)   bands (ev):

   -13.5569 -13.5277  -1.6559  -1.6507  -1.6261  -1.2534  -0.2729  -0.2699
     9.8074  12.0165  12.8185  12.9004

     occupation numbers 
     1.0000   1.0000   1.0000   1.0000   1.0000   1.0000   1.0000   1.0000
    -0.0000  -0.0000  -0.0000  -0.0000

          k = 0.0833 0.2406 0.1112 (  2045 PWs)   bands (ev):

   -13.5502 -13.5344  -1.6547  -1.6519  -1.5446  -1.3431  -0.2722  -0.2706
    10.2196  11.3792  12.8336  12.8752

     occupation numbers 
     1.0000   1.0000   1.0000   1.0000   1.0000   1.0000   1.0000   1.0000
    -0.0000  -0.0000  -0.0000  -0.0000

          k = 0.0833 0.2406-0.1483 (  2054 PWs)   bands (ev):

   -13.5423 -13.5423  -1.6533  -1.6533  -1.4456  -1.4456  -0.2714  -0.2714
    10.7572  10.7573  12.8531  12.8533

     occupation numbers 
     1.0000   1.0000   1.0000   1.0000   1.0000   1.0000   1.0000   1.0000
    -0.0000  -0.0000  -0.0000  -0.0000

          k = 0.0833 0.3368 0.0000 (  2047 PWs)   bands (ev):

   -12.6009 -12.5629  -3.7246  -3.7115  -1.1578  -1.1518  -0.5701  -0.0787
    10.6311  10.7299  10.7830  13.3085

     occupation numbers 
     1.0000   1.0000   1.0000   1.0000   1.0000   1.0000   1.0000   1.0000
    -0.0000  -0.0000  -0.0000  -0.0000

          k = 0.0833 0.3368 0.0371 (  2048 PWs)   bands (ev):

   -12.5995 -12.5643  -3.7241  -3.7120  -1.1576  -1.1521  -0.5528  -0.0990
    10.6218  10.7663  10.8397  13.2971

     occupation numbers 
     1.0000   1.0000   1.0000   1.0000   1.0000   1.0000   1.0000   1.0000
    -0.0000  -0.0000  -0.0000  -0.0000

          k = 0.0833 0.3368 0.0741 (  2047 PWs)   bands (ev):

   -12.5954 -12.5685  -3.7227  -3.7134  -1.1569  -1.1527  -0.5030  -0.1560
    10.6289  10.7491  11.0960  13.1311

     occupation numbers 
     1.0000   1.0000   1.0000   1.0000   1.0000   1.0000   1.0000   1.0000
    -0.0000  -0.0000  -0.0000  -0.0000

          k = 0.0833 0.3368 0.1112 (  2052 PWs)   bands (ev):

   -12.5892 -12.5747  -3.7206  -3.7156  -1.1560  -1.1537  -0.4268  -0.2393
    10.6530  10.7197  11.4932  12.5873

     occupation numbers 
     1.0000   1.0000   1.0000   1.0000   1.0000   1.0000   1.0000   1.0000
    -0.0000  -0.0000  -0.0000  -0.0000

          k = 0.0833 0.3368-0.1483 (  2050 PWs)   bands (ev):

   -12.5820 -12.5820  -3.7181  -3.7181  -1.1548  -1.1548  -0.3345  -0.3345
    10.6856  10.6856  12.0050  12.0050

     occupation numbers 
     1.0000   1.0000   1.0000   1.0000   1.0000   1.0000   1.0000   1.0000
    -0.0000  -0.0000  -0.0000  -0.0000

          k = 0.0833 0.4330 0.0000 (  2048 PWs)   bands (ev):

   -11.3444 -11.3105  -5.8411  -5.8226  -1.7912  -1.7845   0.8334   1.2587
     8.3981   8.6294  12.3877  13.0269

     occupation numbers 
     1.0000   1.0000   1.0000   1.0000   1.0000   1.0000   1.0000   1.0000
    -0.0000  -0.0000  -0.0000  -0.0000

          k = 0.0833 0.4330 0.0371 (  2043 PWs)   bands (ev):

   -11.3431 -11.3118  -5.8404  -5.8233  -1.7910  -1.7847   0.8486   1.2414
     8.4054   8.6193  12.4643  13.0286

     occupation numbers 
     1.0000   1.0000   1.0000   1.0000   1.0000   1.0000   1.0000   1.0000
    -0.0000  -0.0000  -0.0000  -0.0000

          k = 0.0833 0.4330 0.0741 (  2038 PWs)   bands (ev):

   -11.3394 -11.3155  -5.8384  -5.8253  -1.7902  -1.7854   0.8922   1.1926
     8.4271   8.5910  12.6784  13.0326

     occupation numbers 
     1.0000   1.0000   1.0000   1.0000   1.0000   1.0000   1.0000   1.0000
    -0.0000  -0.0000  -0.0000  -0.0000

          k = 0.0833 0.4330 0.1112 (  2034 PWs)   bands (ev):

   -11.3340 -11.3210  -5.8354  -5.8283  -1.7891  -1.7865   0.9587   1.1211
     8.4614   8.5502  12.9299  13.0338

     occupation numbers 
     1.0000   1.0000   1.0000   1.0000   1.0000   1.0000   1.0000   1.0000
    -0.0000  -0.0000  -0.0000  -0.0000

          k = 0.0833 0.4330-0.1483 (  2034 PWs)   bands (ev):

   -11.3275 -11.3275  -5.8318  -5.8318  -1.7878  -1.7878   1.0388   1.0388
     8.5044   8.5044  13.0186  13.0186

     occupation numbers 
     1.0000   1.0000   1.0000   1.0000   1.0000   1.0000   1.0000   1.0000
    -0.0000  -0.0000  -0.0000  -0.0000

          k = 0.0833 0.5292 0.0000 (  2023 PWs)   bands (ev):

    -9.8698  -9.8428  -7.7739  -7.7526  -2.1189  -2.1118   2.2090   2.4749
     6.6423   6.8814  12.8504  12.9253

     occupation numbers 
     1.0000   1.0000   1.0000   1.0000   1.0000   1.0000   1.0000   1.0000
    -0.0000  -0.0000  -0.0000  -0.0000

          k = 0.0833 0.5292 0.0371 (  2026 PWs)   bands (ev):

    -9.8688  -9.8438  -7.7731  -7.7534  -2.1186  -2.1121   2.2191   2.4648
     6.6491   6.8701  12.8532  12.9225

     occupation numbers 
     1.0000   1.0000   1.0000   1.0000   1.0000   1.0000   1.0000   1.0000
    -0.0000  -0.0000  -0.0000  -0.0000

          k = 0.0833 0.5292 0.0741 (  2030 PWs)   bands (ev):

    -9.8659  -9.8467  -7.7708  -7.7558  -2.1179  -2.1129   2.2478   2.4359
     6.6697   6.8389  12.8614  12.9144

     occupation numbers 
     1.0000   1.0000   1.0000   1.0000   1.0000   1.0000   1.0000   1.0000
    -0.0000  -0.0000  -0.0000  -0.0000

          k = 0.0833 0.5292 0.1112 (  2026 PWs)   bands (ev):

    -9.8615  -9.8511  -7.7674  -7.7592  -2.1167  -2.1140   2.2909   2.3928
     6.7032   6.7948  12.8735  12.9022

     occupation numbers 
     1.0000   1.0000   1.0000   1.0000   1.0000   1.0000   1.0000   1.0000
    -0.0000  -0.0000  -0.0000  -0.0000

          k = 0.0833 0.5292-0.1483 (  2024 PWs)   bands (ev):

    -9.8563  -9.8563  -7.7633  -7.7633  -2.1154  -2.1154   2.3418   2.3418
     6.7468   6.7468  12.8879  12.8879

     occupation numbers 
     1.0000   1.0000   1.0000   1.0000   1.0000   1.0000   1.0000   1.0000
    -0.0000  -0.0000  -0.0000  -0.0000

          k = 0.1667 0.2887 0.0000 (  2053 PWs)   bands (ev):

   -12.7606 -12.7220  -2.9834  -2.9773  -1.6286  -1.6241  -0.7516  -0.2526
    10.5222  11.0960  11.1963  13.6820

     occupation numbers 
     1.0000   1.0000   1.0000   1.0000   1.0000   1.0000   1.0000   1.0000
    -0.0000  -0.0000  -0.0000  -0.0000

          k = 0.1667 0.2887 0.0371 (  2053 PWs)   bands (ev):

   -12.7591 -12.7235  -2.9832  -2.9775  -1.6284  -1.6243  -0.7340  -0.2733
    10.6068  11.0997  11.1925  13.4692

     occupation numbers 
     1.0000   1.0000   1.0000   1.0000   1.0000   1.0000   1.0000   1.0000
    -0.0000  -0.0000  -0.0000  -0.0000

          k = 0.1667 0.2887 0.0741 (  2053 PWs)   bands (ev):

   -12.7550 -12.7277  -2.9825  -2.9782  -1.6280  -1.6248  -0.6835  -0.3312
    10.8550  11.1105  11.1817  12.9637

     occupation numbers 
     1.0000   1.0000   1.0000   1.0000   1.0000   1.0000   1.0000   1.0000
    -0.0000  -0.0000  -0.0000  -0.0000

          k = 0.1667 0.2887 0.1112 (  2052 PWs)   bands (ev):

   -12.7488 -12.7340  -2.9815  -2.9792  -1.6273  -1.6255  -0.6062  -0.4158
    11.1267  11.1638  11.2515  12.3571

     occupation numbers 
     1.0000   1.0000   1.0000   1.0000   1.0000   1.0000   1.0000   1.0000
    -0.0000  -0.0000  -0.0000  -0.0000

          k = 0.1667 0.2887-0.1483 (  2038 PWs)   bands (ev):

   -12.7414 -12.7414  -2.9803  -2.9803  -1.6264  -1.6264  -0.5125  -0.5125
    11.1457  11.1457  11.7645  11.7645

     occupation numbers 
     1.0000   1.0000   1.0000   1.0000   1.0000   1.0000   1.0000   1.0000
    -0.0000  -0.0000  -0.0000  -0.0000

          k = 0.1667 0.3849 0.0000 (  2049 PWs)   bands (ev):

   -11.6561 -11.6212  -4.7071  -4.6944  -2.6828  -2.6745   0.5180   0.9686
     9.1400   9.2834  11.9938  14.9305

     occupation numbers 
     1.0000   1.0000   1.0000   1.0000   1.0000   1.0000   1.0000   1.0000
    -0.0000  -0.0000  -0.0000  -0.0000

          k = 0.1667 0.3849 0.0371 (  2050 PWs)   bands (ev):

   -11.6547 -11.6225  -4.7066  -4.6949  -2.6825  -2.6748   0.5340   0.9502
     9.1450   9.2777  12.0720  14.5755

     occupation numbers 
     1.0000   1.0000   1.0000   1.0000   1.0000   1.0000   1.0000   1.0000
    -0.0000  -0.0000  -0.0000  -0.0000

          k = 0.1667 0.3849 0.0741 (  2053 PWs)   bands (ev):

   -11.6510 -11.6263  -4.7052  -4.6963  -2.6816  -2.6757   0.5800   0.8982
     9.1598   9.2615  12.3004  14.1628

     occupation numbers 
     1.0000   1.0000   1.0000   1.0000   1.0000   1.0000   1.0000   1.0000
    -0.0000  -0.0000  -0.0000  -0.0000

          k = 0.1667 0.3849 0.1112 (  2047 PWs)   bands (ev):

   -11.6454 -11.6320  -4.7032  -4.6984  -2.6802  -2.6771   0.6501   0.8222
     9.1824   9.2375  12.6610  13.6466

     occupation numbers 
     1.0000   1.0000   1.0000   1.0000   1.0000   1.0000   1.0000   1.0000
    -0.0000  -0.0000  -0.0000  -0.0000

          k = 0.1667 0.3849-0.1483 (  2046 PWs)   bands (ev):

   -11.6387 -11.6387  -4.7008  -4.7008  -2.6786  -2.6786   0.7349   0.7349
     9.2097   9.2097  13.1242  13.1242

     occupation numbers 
     1.0000   1.0000   1.0000   1.0000   1.0000   1.0000   1.0000   1.0000
    -0.0000  -0.0000  -0.0000  -0.0000

          k = 0.1667 0.4811 0.0000 (  2036 PWs)   bands (ev):

   -10.2846 -10.2545  -6.6114  -6.5925  -3.2588  -3.2483   1.9802   2.3389
     7.2168   7.4106  13.8407  14.7154

     occupation numbers 
     1.0000   1.0000   1.0000   1.0000   1.0000   1.0000   1.0000   1.0000
    -0.0000  -0.0000  -0.0000  -0.0000

          k = 0.1667 0.4811 0.0371 (  2037 PWs)   bands (ev):

   -10.2834 -10.2557  -6.6107  -6.5933  -3.2584  -3.2487   1.9933   2.3246
     7.2233   7.4025  13.9039  14.7175

     occupation numbers 
     1.0000   1.0000   1.0000   1.0000   1.0000   1.0000   1.0000   1.0000
    -0.0000  -0.0000  -0.0000  -0.0000

          k = 0.1667 0.4811 0.0741 (  2037 PWs)   bands (ev):

   -10.2802 -10.2590  -6.6087  -6.5953  -3.2572  -3.2498   2.0306   2.2841
     7.2423   7.3796  14.0849  14.7221

     occupation numbers 
     1.0000   1.0000   1.0000   1.0000   1.0000   1.0000   1.0000   1.0000
    -0.0000  -0.0000  -0.0000  -0.0000

          k = 0.1667 0.4811 0.1112 (  2035 PWs)   bands (ev):

   -10.2753 -10.2639  -6.6056  -6.5984  -3.2555  -3.2515   2.0872   2.2243
     7.2718   7.3462  14.3548  14.7164

     occupation numbers 
     1.0000   1.0000   1.0000   1.0000   1.0000   1.0000   1.0000   1.0000
    -0.0000  -0.0000  -0.0000  -0.0000

          k = 0.1667 0.4811-0.1483 (  2034 PWs)   bands (ev):

   -10.2696 -10.2696  -6.6020  -6.6020  -3.2535  -3.2535   2.1551   2.1551
     7.3082   7.3082  14.6246  14.6247

     occupation numbers 
     1.0000   1.0000   1.0000   1.0000   1.0000   1.0000   1.0000   1.0000
    -0.0000  -0.0000  -0.0000  -0.0000

          k = 0.1667 0.5774 0.0000 (  2032 PWs)   bands (ev):

    -9.0520  -9.0379  -8.0314  -8.0209  -3.4436  -3.4326   2.9554   3.1246
     6.1939   6.3247  14.6163  14.7554

     occupation numbers 
     1.0000   1.0000   1.0000   1.0000   1.0000   1.0000   1.0000   1.0000
    -0.0000  -0.0000  -0.0000  -0.0000

          k = 0.1667 0.5774 0.0371 (  2036 PWs)   bands (ev):

    -9.0515  -9.0384  -8.0310  -8.0213  -3.4432  -3.4330   2.9623   3.1187
     6.1968   6.3178  14.6210  14.7492

     occupation numbers 
     1.0000   1.0000   1.0000   1.0000   1.0000   1.0000   1.0000   1.0000
    -0.0000  -0.0000  -0.0000  -0.0000

          k = 0.1667 0.5774 0.0741 (  2028 PWs)   bands (ev):

    -9.0499  -9.0399  -8.0299  -8.0225  -3.4420  -3.4342   2.9818   3.1017
     6.2062   6.2990  14.6344  14.7320

     occupation numbers 
     1.0000   1.0000   1.0000   1.0000   1.0000   1.0000   1.0000   1.0000
    -0.0000  -0.0000  -0.0000  -0.0000

          k = 0.1667 0.5774 0.1112 (  2031 PWs)   bands (ev):

    -9.0476  -9.0421  -8.0283  -8.0243  -3.4402  -3.4360   3.0105   3.0754
     6.2227   6.2731  14.6548  14.7073

     occupation numbers 
     1.0000   1.0000   1.0000   1.0000   1.0000   1.0000   1.0000   1.0000
    -0.0000  -0.0000  -0.0000  -0.0000

          k = 0.1667 0.5774-0.1483 (  2028 PWs)   bands (ev):

    -9.0448  -9.0448  -8.0263  -8.0263  -3.4381  -3.4381   3.0435   3.0435
     6.2459   6.2459  14.6802  14.6802

     occupation numbers 
     1.0000   1.0000   1.0000   1.0000   1.0000   1.0000   1.0000   1.0000
    -0.0000  -0.0000  -0.0000  -0.0000

          k = 0.2500 0.4330 0.0000 (  2034 PWs)   bands (ev):

   -10.4317 -10.4010  -5.7393  -5.7301  -4.1564  -4.1494   1.8836   2.2710
     7.5364   7.6727  13.6411  15.3845

     occupation numbers 
     1.0000   1.0000   1.0000   1.0000   1.0000   1.0000   1.0000   1.0000
    -0.0000  -0.0000  -0.0000  -0.0000

          k = 0.2500 0.4330 0.0371 (  2036 PWs)   bands (ev):

   -10.4305 -10.4022  -5.7389  -5.7305  -4.1561  -4.1497   1.8975   2.2553
     7.5416   7.6675  13.7004  15.3021

     occupation numbers 
     1.0000   1.0000   1.0000   1.0000   1.0000   1.0000   1.0000   1.0000
    -0.0000  -0.0000  -0.0000  -0.0000

          k = 0.2500 0.4330 0.0741 (  2042 PWs)   bands (ev):

   -10.4272 -10.4055  -5.7379  -5.7314  -4.1554  -4.1505   1.9374   2.2112
     7.5562   7.6526  13.8708  15.0829

     occupation numbers 
     1.0000   1.0000   1.0000   1.0000   1.0000   1.0000   1.0000   1.0000
    -0.0000  -0.0000  -0.0000  -0.0000

          k = 0.2500 0.4330 0.1112 (  2040 PWs)   bands (ev):

   -10.4223 -10.4105  -5.7365  -5.7329  -4.1543  -4.1516   1.9982   2.1463
     7.5782   7.6303  14.1312  14.7813

     occupation numbers 
     1.0000   1.0000   1.0000   1.0000   1.0000   1.0000   1.0000   1.0000
    -0.0000  -0.0000  -0.0000  -0.0000

          k = 0.2500 0.4330-0.1483 (  2044 PWs)   bands (ev):

   -10.4164 -10.4164  -5.7347  -5.7347  -4.1530  -4.1530   2.0714   2.0714
     7.6042   7.6042  14.4486  14.4486

     occupation numbers 
     1.0000   1.0000   1.0000   1.0000   1.0000   1.0000   1.0000   1.0000
    -0.0000  -0.0000  -0.0000  -0.0000

          k = 0.2500 0.5292 0.0000 (  2030 PWs)   bands (ev):

    -9.0141  -8.9899  -7.1560  -7.1403  -4.8639  -4.8522   3.3193   3.5835
     6.0301   6.1604  15.5761  15.6361

     occupation numbers 
     1.0000   1.0000   1.0000   1.0000   1.0000   1.0000   1.0000   1.0001
    -0.0001  -0.0000  -0.0000  -0.0000

          k = 0.2500 0.5292 0.0371 (  2037 PWs)   bands (ev):

    -9.0132  -8.9909  -7.1554  -7.1409  -4.8635  -4.8527   3.3292   3.5734
     6.0345   6.1549  15.5082  15.5974

     occupation numbers 
     1.0000   1.0000   1.0000   1.0000   1.0000   1.0000   1.0000   1.0001
    -0.0001  -0.0000  -0.0000  -0.0000

          k = 0.2500 0.5292 0.0741 (  2039 PWs)   bands (ev):

    -9.0106  -8.9935  -7.1537  -7.1426  -4.8622  -4.8539   3.3576   3.5446
     6.0472   6.1394  15.4052  15.4974

     occupation numbers 
     1.0000   1.0000   1.0000   1.0000   1.0000   1.0000   1.0000   1.0001
    -0.0001  -0.0000  -0.0000  -0.0000

          k = 0.2500 0.5292 0.1112 (  2047 PWs)   bands (ev):

    -9.0067  -8.9974  -7.1512  -7.1452  -4.8603  -4.8559   3.4002   3.5014
     6.0669   6.1168  15.3427  15.3981

     occupation numbers 
     1.0000   1.0000   1.0000   1.0000   1.0000   1.0000   1.0000   1.0000
    -0.0001  -0.0000  -0.0000  -0.0000

          k = 0.2500 0.5292-0.1483 (  2044 PWs)   bands (ev):

    -9.0021  -9.0021  -7.1482  -7.1482  -4.8581  -4.8581   3.4508   3.4508
     6.0913   6.0913  15.3406  15.3406

     occupation numbers 
     1.0000   1.0000   1.0000   1.0000   1.0000   1.0000   1.0000   1.0000
    -0.0000  -0.0000  -0.0000  -0.0000

          k = 0.3333 0.5774 0.0000 (  2046 PWs)   bands (ev):

    -7.8044  -7.7920  -7.7919  -7.7802  -5.7444  -5.7444   4.6447   4.7989
     4.7990   4.9614  15.4975  15.4982

     occupation numbers 
     1.0000   1.0000   1.0000   1.0000   1.0000   1.0000   0.7981   0.5030
     0.5029   0.1931  -0.0000  -0.0000

          k = 0.3333 0.5774 0.0371 (  2040 PWs)   bands (ev):

    -7.8035  -7.7920  -7.7919  -7.7811  -5.7445  -5.7444   4.6562   4.7992
     4.7992   4.9488  15.4428  15.4433

     occupation numbers 
     1.0000   1.0000   1.0000   1.0000   1.0000   1.0000   0.7792   0.5025
     0.5023   0.2137  -0.0000  -0.0000

          k = 0.3333 0.5774 0.0741 (  2049 PWs)   bands (ev):

    -7.8009  -7.7921  -7.7919  -7.7837  -5.7445  -5.7445   4.6891   4.7998
     4.7999   4.9129  15.3292  15.3296

     occupation numbers 
     1.0000   1.0000   1.0000   1.0000   1.0000   1.0000   0.7214   0.5012
     0.5010   0.2762  -0.0000  -0.0000

          k = 0.3333 0.5774 0.1112 (  2049 PWs)   bands (ev):

    -7.7970  -7.7921  -7.7919  -7.7876  -5.7445  -5.7445   4.7390   4.8004
     4.8005   4.8601  15.2337  15.2339

     occupation numbers 
     1.0000   1.0000   1.0000   1.0000   1.0000   1.0000   0.6256   0.4998
     0.4997   0.3775  -0.0000  -0.0000

          k = 0.3333 0.5774-0.1483 (  2064 PWs)   bands (ev):

    -7.7929  -7.7929  -7.7914  -7.7914  -5.7446  -5.7446   4.7985   4.7985
     4.8011   4.8011  15.1980  15.1980

     occupation numbers 
     1.0000   1.0000   1.0000   1.0000   1.0000   1.0000   0.5037   0.5037
     0.4984   0.4984  -0.0000  -0.0000

          k =-0.0833-0.0481 0.0000 (  2081 PWs)   bands (ev):

   -14.5374 -14.4927  -2.8649  -2.3057   1.0822   1.0853   1.3924   1.3949
     8.1836  11.6855  13.1464  13.1713

     occupation numbers 
     1.0000   1.0000   1.0000   1.0000   1.0000   1.0000   1.0000   1.0000
    -0.0000  -0.0000  -0.0000  -0.0000

          k =-0.0833-0.0481-0.0371 (  2081 PWs)   bands (ev):

   -14.5357 -14.4944  -2.8454  -2.3291   1.0823   1.0852   1.3925   1.3948
     8.2753  11.4394  13.1508  13.1709

     occupation numbers 
     1.0000   1.0000   1.0000   1.0000   1.0000   1.0000   1.0000   1.0000
    -0.0000  -0.0000  -0.0000  -0.0000

          k =-0.0833-0.0481-0.0741 (  2083 PWs)   bands (ev):

   -14.5309 -14.4993  -2.7892  -2.3946   1.0826   1.0848   1.3928   1.3945
     8.5443  10.8631  13.1572  13.1698

     occupation numbers 
     1.0000   1.0000   1.0000   1.0000   1.0000   1.0000   1.0000   1.0000
    -0.0000  -0.0000  -0.0000  -0.0000

          k =-0.0833-0.0481-0.1112 (  2075 PWs)   bands (ev):

   -14.5237 -14.5066  -2.7032  -2.4899   1.0831   1.0843   1.3932   1.3941
     8.9730  10.1855  13.1619  13.1678

     occupation numbers 
     1.0000   1.0000   1.0000   1.0000   1.0000   1.0000   1.0000   1.0000
    -0.0000  -0.0000  -0.0000  -0.0000

          k =-0.0833-0.0481 0.1483 (  2074 PWs)   bands (ev):

   -14.5152 -14.5152  -2.5985  -2.5985   1.0837   1.0837   1.3936   1.3936
     9.5336   9.5336  13.1651  13.1652

     occupation numbers 
     1.0000   1.0000   1.0000   1.0000   1.0000   1.0000   1.0000   1.0000
    -0.0000  -0.0000  -0.0000  -0.0000

          k =-0.1667-0.0962 0.0000 (  2077 PWs)   bands (ev):

   -14.0487 -14.0057  -2.2775  -1.7334  -0.5520  -0.5452   0.6031   0.6068
     8.8215  12.2528  13.0722  13.1265

     occupation numbers 
     1.0000   1.0000   1.0000   1.0000   1.0000   1.0000   1.0000   1.0000
    -0.0000  -0.0000  -0.0000  -0.0000

          k =-0.1667-0.0962-0.0371 (  2066 PWs)   bands (ev):

   -14.0470 -14.0073  -2.2585  -1.7561  -0.5517  -0.5454   0.6033   0.6066
     8.9116  12.0110  13.0836  13.1258

     occupation numbers 
     1.0000   1.0000   1.0000   1.0000   1.0000   1.0000   1.0000   1.0000
    -0.0000  -0.0000  -0.0000  -0.0000

          k =-0.1667-0.0962-0.0741 (  2069 PWs)   bands (ev):

   -14.0424 -14.0120  -2.2038  -1.8197  -0.5509  -0.5462   0.6037   0.6062
     9.1759  11.4483  13.0979  13.1240

     occupation numbers 
     1.0000   1.0000   1.0000   1.0000   1.0000   1.0000   1.0000   1.0000
    -0.0000  -0.0000  -0.0000  -0.0000

          k =-0.1667-0.0962-0.1112 (  2062 PWs)   bands (ev):

   -14.0355 -14.0190  -2.1199  -1.9123  -0.5498  -0.5473   0.6043   0.6057
     9.5969  10.7859  13.1072  13.1196

     occupation numbers 
     1.0000   1.0000   1.0000   1.0000   1.0000   1.0000   1.0000   1.0000
    -0.0000  -0.0000  -0.0000  -0.0000

          k =-0.1667-0.0962 0.1483 (  2072 PWs)   bands (ev):

   -14.0273 -14.0273  -2.0180  -2.0180  -0.5486  -0.5486   0.6049   0.6049
    10.1470  10.1470  13.1140  13.1140

     occupation numbers 
     1.0000   1.0000   1.0000   1.0000   1.0000   1.0000   1.0000   1.0000
    -0.0000  -0.0000  -0.0000  -0.0000

          k =-0.2500-0.1443 0.0000 (  2052 PWs)   bands (ev):

   -13.2405 -13.2003  -2.6453  -2.6338  -1.3183  -0.8020  -0.2735  -0.2691
     9.8819  11.9191  12.0384  12.7830

     occupation numbers 
     1.0000   1.0000   1.0000   1.0000   1.0000   1.0000   1.0000   1.0000
    -0.0000  -0.0000  -0.0000  -0.0000

          k =-0.2500-0.1443-0.0371 (  2051 PWs)   bands (ev):

   -13.2390 -13.2018  -2.6448  -2.6343  -1.3002  -0.8234  -0.2733  -0.2692
     9.9678  11.9189  12.0280  12.7655

     occupation numbers 
     1.0000   1.0000   1.0000   1.0000   1.0000   1.0000   1.0000   1.0000
    -0.0000  -0.0000  -0.0000  -0.0000

          k =-0.2500-0.1443-0.0741 (  2056 PWs)   bands (ev):

   -13.2346 -13.2062  -2.6436  -2.6355  -1.2480  -0.8835  -0.2728  -0.2697
[...]
     9.1612   9.2628  12.3004  14.1622

     occupation numbers 
     1.0000   1.0000   1.0000   1.0000   1.0000   1.0000   1.0000   1.0000
    -0.0000  -0.0000  -0.0000  -0.0000

          k =-0.2500-0.3368-0.1112 (  2047 PWs)   bands (ev):

   -11.6453 -11.6320  -4.7024  -4.6976  -2.6812  -2.6780   0.6500   0.8220
     9.1828   9.2379  12.6610  13.6466

     occupation numbers 
     1.0000   1.0000   1.0000   1.0000   1.0000   1.0000   1.0000   1.0000
    -0.0000  -0.0000  -0.0000  -0.0000

          k = 0.4167-0.0481-0.1112 (  2047 PWs)   bands (ev):

   -11.6453 -11.6319  -4.7015  -4.6967  -2.6822  -2.6790   0.6497   0.8218
     9.1837   9.2388  12.6609  13.6462

     occupation numbers 
     1.0000   1.0000   1.0000   1.0000   1.0000   1.0000   1.0000   1.0000
    -0.0000  -0.0000  -0.0000  -0.0000

          k =-0.2500-0.3368 0.1483 (  2046 PWs)   bands (ev):

   -11.6387 -11.6387  -4.7000  -4.7000  -2.6796  -2.6796   0.7348   0.7348
     9.2101   9.2101  13.1243  13.1243

     occupation numbers 
     1.0000   1.0000   1.0000   1.0000   1.0000   1.0000   1.0000   1.0000
    -0.0000  -0.0000  -0.0000  -0.0000

          k = 0.4167-0.0481 0.1483 (  2046 PWs)   bands (ev):

   -11.6386 -11.6386  -4.6991  -4.6991  -2.6806  -2.6806   0.7345   0.7345
     9.2110   9.2110  13.1240  13.1240

     occupation numbers 
     1.0000   1.0000   1.0000   1.0000   1.0000   1.0000   1.0000   1.0000
    -0.0000  -0.0000  -0.0000  -0.0000

          k =-0.3333-0.3849 0.0000 (  2036 PWs)   bands (ev):

   -10.2846 -10.2546  -6.6104  -6.5915  -3.2599  -3.2494   1.9797   2.3383
     7.2180   7.4117  13.8408  14.7149

     occupation numbers 
     1.0000   1.0000   1.0000   1.0000   1.0000   1.0000   1.0000   1.0000
    -0.0000  -0.0000  -0.0000  -0.0000

          k = 0.5000-0.0962 0.0000 (  2036 PWs)   bands (ev):

   -10.2846 -10.2546  -6.6102  -6.5913  -3.2602  -3.2498   1.9794   2.3379
     7.2186   7.4124  13.8407  14.7141

     occupation numbers 
     1.0000   1.0000   1.0000   1.0000   1.0000   1.0000   1.0000   1.0000
    -0.0000  -0.0000  -0.0000  -0.0000

          k =-0.3333-0.3849-0.0371 (  2037 PWs)   bands (ev):

   -10.2835 -10.2557  -6.6097  -6.5923  -3.2595  -3.2499   1.9927   2.3239
     7.2245   7.4036  13.9044  14.7171

     occupation numbers 
     1.0000   1.0000   1.0000   1.0000   1.0000   1.0000   1.0000   1.0000
    -0.0000  -0.0000  -0.0000  -0.0000

          k = 0.5000-0.0962-0.0371 (  2037 PWs)   bands (ev):

   -10.2835 -10.2557  -6.6095  -6.5920  -3.2598  -3.2502   1.9924   2.3236
     7.2251   7.4043  13.9038  14.7164

     occupation numbers 
     1.0000   1.0000   1.0000   1.0000   1.0000   1.0000   1.0000   1.0000
    -0.0000  -0.0000  -0.0000  -0.0000

          k =-0.3333-0.3849-0.0741 (  2037 PWs)   bands (ev):

   -10.2803 -10.2590  -6.6077  -6.5943  -3.2584  -3.2510   2.0300   2.2834
     7.2435   7.3807  14.0850  14.7214

     occupation numbers 
     1.0000   1.0000   1.0000   1.0000   1.0000   1.0000   1.0000   1.0000
    -0.0000  -0.0000  -0.0000  -0.0000

          k = 0.5000-0.0962-0.0741 (  2037 PWs)   bands (ev):

   -10.2802 -10.2590  -6.6074  -6.5941  -3.2587  -3.2513   2.0297   2.2831
     7.2441   7.3814  14.0847  14.7210

     occupation numbers 
     1.0000   1.0000   1.0000   1.0000   1.0000   1.0000   1.0000   1.0000
    -0.0000  -0.0000  -0.0000  -0.0000

          k =-0.3333-0.3849-0.1112 (  2035 PWs)   bands (ev):

   -10.2754 -10.2639  -6.6046  -6.5974  -3.2567  -3.2527   2.0866   2.2237
     7.2730   7.3474  14.3550  14.7159

     occupation numbers 
     1.0000   1.0000   1.0000   1.0000   1.0000   1.0000   1.0000   1.0000
    -0.0000  -0.0000  -0.0000  -0.0000

          k = 0.5000-0.0962-0.1112 (  2035 PWs)   bands (ev):

   -10.2754 -10.2639  -6.6044  -6.5971  -3.2570  -3.2530   2.0863   2.2234
     7.2737   7.3480  14.3544  14.7153

     occupation numbers 
     1.0000   1.0000   1.0000   1.0000   1.0000   1.0000   1.0000   1.0000
    -0.0000  -0.0000  -0.0000  -0.0000

          k =-0.3333-0.3849 0.1483 (  2034 PWs)   bands (ev):

   -10.2697 -10.2697  -6.6010  -6.6010  -3.2547  -3.2547   2.1545   2.1545
     7.3094   7.3094  14.6246  14.6250

     occupation numbers 
     1.0000   1.0000   1.0000   1.0000   1.0000   1.0000   1.0000   1.0000
    -0.0000  -0.0000  -0.0000  -0.0000

          k = 0.5000-0.0962 0.1483 (  2034 PWs)   bands (ev):

   -10.2696 -10.2696  -6.6008  -6.6008  -3.2550  -3.2550   2.1542   2.1542
     7.3100   7.3100  14.6238  14.6238

     occupation numbers 
     1.0000   1.0000   1.0000   1.0000   1.0000   1.0000   1.0000   1.0000
    -0.0000  -0.0000  -0.0000  -0.0000

          k =-0.4167-0.4330 0.0000 (  2032 PWs)   bands (ev):

    -9.0529  -9.0388  -8.0295  -8.0190  -3.4448  -3.4338   2.9539   3.1231
     6.1961   6.3270  14.6156  14.7547

     occupation numbers 
     1.0000   1.0000   1.0000   1.0000   1.0000   1.0000   1.0000   1.0000
    -0.0000  -0.0000  -0.0000  -0.0000

          k =-0.4167-0.4330-0.0371 (  2036 PWs)   bands (ev):

    -9.0524  -9.0393  -8.0291  -8.0194  -3.4444  -3.4343   2.9608   3.1172
     6.1990   6.3201  14.6203  14.7485

     occupation numbers 
     1.0000   1.0000   1.0000   1.0000   1.0000   1.0000   1.0000   1.0000
    -0.0000  -0.0000  -0.0000  -0.0000

          k =-0.4167-0.4330-0.0741 (  2028 PWs)   bands (ev):

    -9.0508  -9.0408  -8.0280  -8.0206  -3.4432  -3.4354   2.9803   3.1002
     6.2084   6.3013  14.6336  14.7312

     occupation numbers 
     1.0000   1.0000   1.0000   1.0000   1.0000   1.0000   1.0000   1.0000
    -0.0000  -0.0000  -0.0000  -0.0000

          k =-0.4167-0.4330-0.1112 (  2031 PWs)   bands (ev):

    -9.0485  -9.0430  -8.0264  -8.0224  -3.4415  -3.4372   3.0090   3.0740
     6.2249   6.2754  14.6541  14.7066

     occupation numbers 
     1.0000   1.0000   1.0000   1.0000   1.0000   1.0000   1.0000   1.0000
    -0.0000  -0.0000  -0.0000  -0.0000

          k =-0.4167-0.4330 0.1483 (  2028 PWs)   bands (ev):

    -9.0457  -9.0457  -8.0244  -8.0244  -3.4393  -3.4393   3.0420   3.0420
     6.2482   6.2482  14.6794  14.6794

     occupation numbers 
     1.0000   1.0000   1.0000   1.0000   1.0000   1.0000   1.0000   1.0000
    -0.0000  -0.0000  -0.0000  -0.0000

          k = 0.5000-0.0000 0.0000 (  2034 PWs)   bands (ev):

   -10.4317 -10.4010  -5.7378  -5.7286  -4.1580  -4.1510   1.8830   2.2704
     7.5377   7.6739  13.6411  15.3835

     occupation numbers 
     1.0000   1.0000   1.0000   1.0000   1.0000   1.0000   1.0000   1.0000
    -0.0000  -0.0000  -0.0000  -0.0000

          k = 0.5000-0.0000-0.0371 (  2036 PWs)   bands (ev):

   -10.4305 -10.4021  -5.7375  -5.7290  -4.1577  -4.1513   1.8969   2.2547
     7.5429   7.6687  13.7003  15.3011

     occupation numbers 
     1.0000   1.0000   1.0000   1.0000   1.0000   1.0000   1.0000   1.0000
    -0.0000  -0.0000  -0.0000  -0.0000

          k = 0.5000-0.0000-0.0741 (  2042 PWs)   bands (ev):

   -10.4272 -10.4055  -5.7365  -5.7300  -4.1570  -4.1521   1.9369   2.2105
     7.5575   7.6538  13.8707  15.0822

     occupation numbers 
     1.0000   1.0000   1.0000   1.0000   1.0000   1.0000   1.0000   1.0000
    -0.0000  -0.0000  -0.0000  -0.0000

          k = 0.5000-0.0000-0.1112 (  2040 PWs)   bands (ev):

   -10.4222 -10.4105  -5.7350  -5.7315  -4.1559  -4.1532   1.9976   2.1457
     7.5795   7.6316  14.1310  14.7807

     occupation numbers 
     1.0000   1.0000   1.0000   1.0000   1.0000   1.0000   1.0000   1.0000
    -0.0000  -0.0000  -0.0000  -0.0000

          k = 0.5000-0.0000 0.1483 (  2044 PWs)   bands (ev):

   -10.4164 -10.4164  -5.7333  -5.7333  -4.1546  -4.1546   2.0708   2.0708
     7.6055   7.6055  14.4482  14.4482

     occupation numbers 
     1.0000   1.0000   1.0000   1.0000   1.0000   1.0000   1.0000   1.0000
    -0.0000  -0.0000  -0.0000  -0.0000

          k =-0.3333-0.4811 0.0000 (  2030 PWs)   bands (ev):

    -9.0144  -8.9902  -7.1550  -7.1393  -4.8648  -4.8531   3.3186   3.5828
     6.0313   6.1613  15.5762  15.6358

     occupation numbers 
     1.0000   1.0000   1.0000   1.0000   1.0000   1.0000   1.0000   1.0001
    -0.0001  -0.0000  -0.0000  -0.0000

          k = 0.5833-0.0481 0.0000 (  2030 PWs)   bands (ev):

    -9.0144  -8.9903  -7.1545  -7.1387  -4.8653  -4.8536   3.3181   3.5822
     6.0320   6.1622  15.5761  15.6350

     occupation numbers 
     1.0000   1.0000   1.0000   1.0000   1.0000   1.0000   1.0000   1.0001
    -0.0001  -0.0000  -0.0000  -0.0000

          k =-0.3333-0.4811-0.0371 (  2037 PWs)   bands (ev):

    -9.0134  -8.9911  -7.1544  -7.1399  -4.8643  -4.8536   3.3286   3.5726
     6.0356   6.1558  15.5081  15.5972

     occupation numbers 
     1.0000   1.0000   1.0000   1.0000   1.0000   1.0000   1.0000   1.0001
    -0.0001  -0.0000  -0.0000  -0.0000

          k = 0.5833-0.0481-0.0371 (  2037 PWs)   bands (ev):

    -9.0135  -8.9912  -7.1539  -7.1394  -4.8648  -4.8540   3.3280   3.5721
     6.0364   6.1567  15.5080  15.5965

     occupation numbers 
     1.0000   1.0000   1.0000   1.0000   1.0000   1.0000   1.0000   1.0001
    -0.0001  -0.0000  -0.0000  -0.0000

          k =-0.3333-0.4811-0.0741 (  2039 PWs)   bands (ev):

    -9.0108  -8.9937  -7.1527  -7.1416  -4.8631  -4.8548   3.3569   3.5438
     6.0483   6.1404  15.4050  15.4973

     occupation numbers 
     1.0000   1.0000   1.0000   1.0000   1.0000   1.0000   1.0000   1.0001
    -0.0001  -0.0000  -0.0000  -0.0000

          k = 0.5833-0.0481-0.0741 (  2039 PWs)   bands (ev):

    -9.0109  -8.9938  -7.1522  -7.1411  -4.8636  -4.8553   3.3564   3.5432
     6.0491   6.1412  15.4049  15.4966

     occupation numbers 
     1.0000   1.0000   1.0000   1.0000   1.0000   1.0000   1.0000   1.0001
    -0.0001  -0.0000  -0.0000  -0.0000

          k =-0.3333-0.4811-0.1112 (  2047 PWs)   bands (ev):

    -9.0069  -8.9977  -7.1502  -7.1442  -4.8612  -4.8568   3.3995   3.5007
     6.0680   6.1179  15.3427  15.3980

     occupation numbers 
     1.0000   1.0000   1.0000   1.0000   1.0000   1.0000   1.0000   1.0000
    -0.0001  -0.0000  -0.0000  -0.0000

          k = 0.5833-0.0481-0.1112 (  2047 PWs)   bands (ev):

    -9.0070  -8.9978  -7.1497  -7.1437  -4.8617  -4.8572   3.3990   3.5001
     6.0688   6.1187  15.3422  15.3974

     occupation numbers 
     1.0000   1.0000   1.0000   1.0000   1.0000   1.0000   1.0000   1.0000
    -0.0001  -0.0000  -0.0000  -0.0000

          k =-0.3333-0.4811 0.1483 (  2044 PWs)   bands (ev):

    -9.0023  -9.0023  -7.1472  -7.1472  -4.8590  -4.8590   3.4500   3.4500
     6.0924   6.0924  15.3405  15.3405

     occupation numbers 
     1.0000   1.0000   1.0000   1.0000   1.0000   1.0000   1.0000   1.0000
    -0.0000  -0.0000  -0.0000  -0.0000

          k = 0.5833-0.0481 0.1483 (  2044 PWs)   bands (ev):

    -9.0024  -9.0024  -7.1467  -7.1467  -4.8595  -4.8595   3.4495   3.4495
     6.0932   6.0932  15.3401  15.3401

     occupation numbers 
     1.0000   1.0000   1.0000   1.0000   1.0000   1.0000   1.0000   1.0000
    -0.0000  -0.0000  -0.0000  -0.0000

     the Fermi energy is     4.8003 ev

!    total energy              =     -49.71440351 Ry
     estimated scf accuracy    <          2.8E-10 Ry
     smearing contrib. (-TS)   =      -0.00041930 Ry
     internal energy E=F+TS    =     -49.71398421 Ry

     The total energy is F=E-TS. E is the sum of the following terms:
     one-electron contribution =     -29.91213454 Ry
     hartree contribution      =      21.73974805 Ry
     xc contribution           =     -18.53829520 Ry
     ewald contribution        =     -23.00330253 Ry

     convergence has been achieved in   7 iterations

     Forces acting on atoms (cartesian axes, Ry/au):

     atom    1 type  1   force =     0.00000000   -0.00027614    0.00000000
     atom    2 type  1   force =     0.00000000    0.00027614    0.00000000
     atom    3 type  1   force =     0.00000000    0.00027660    0.00000000
     atom    4 type  1   force =     0.00000000   -0.00027660    0.00000000
     The non-local contrib.  to forces
     atom    1 type  1   force =     0.00000000   -0.00025699    0.00000000
     atom    2 type  1   force =     0.00000000    0.00025699    0.00000000
     atom    3 type  1   force =     0.00000000    0.00025702    0.00000000
     atom    4 type  1   force =     0.00000000   -0.00025702    0.00000000
     The ionic contribution  to forces
     atom    1 type  1   force =    -0.00000000   -0.00098176   -0.00000000
     atom    2 type  1   force =    -0.00000000    0.00098176    0.00000000
     atom    3 type  1   force =    -0.00000000    0.00098202   -0.00000000
     atom    4 type  1   force =     0.00000000   -0.00098202    0.00000000
     The local contribution  to forces
     atom    1 type  1   force =     0.00000000    0.00095434    0.00000000
     atom    2 type  1   force =     0.00000000   -0.00095434    0.00000000
     atom    3 type  1   force =    -0.00000000   -0.00095447    0.00000000
     atom    4 type  1   force =    -0.00000000    0.00095447    0.00000000
     The core correction contribution to forces
     atom    1 type  1   force =    -0.00000000    0.00000830    0.00000000
     atom    2 type  1   force =     0.00000000   -0.00000830   -0.00000000
     atom    3 type  1   force =     0.00000000   -0.00000787   -0.00000000
     atom    4 type  1   force =     0.00000000    0.00000787   -0.00000000
     The Hubbard contrib.    to forces
     atom    1 type  1   force =     0.00000000    0.00000000    0.00000000
     atom    2 type  1   force =     0.00000000    0.00000000    0.00000000
     atom    3 type  1   force =     0.00000000    0.00000000    0.00000000
     atom    4 type  1   force =     0.00000000    0.00000000    0.00000000
     The SCF correction term to forces
     atom    1 type  1   force =    -0.00000000   -0.00000003    0.00000000
     atom    2 type  1   force =     0.00000000    0.00000003    0.00000000
     atom    3 type  1   force =    -0.00000000   -0.00000010    0.00000000
     atom    4 type  1   force =     0.00000000    0.00000010    0.00000000

     Total force =     0.000553     Total SCF correction =     0.000000


     Computing stress (Cartesian axis) and pressure

          total   stress  (Ry/bohr**3)                   (kbar)     P=      -12.91
  -0.00012997   0.00000000   0.00000000          -19.12        0.00        0.00
   0.00000000  -0.00012887   0.00000000            0.00      -18.96        0.00
   0.00000000   0.00000000  -0.00000440            0.00        0.00       -0.65

     kinetic stress (kbar)   9264.71     -0.00      0.00
                               -0.00   9263.97     -0.00
                                0.00     -0.00  10526.02

     local   stress (kbar) -26774.21     -0.00     -0.00
                               -0.00 -26778.64     -0.00
                               -0.00     -0.00  27091.73

     nonloc. stress (kbar)   1802.87      0.00      0.00
                                0.00   1803.02      0.00
                                0.00      0.00   1656.62

     hartree stress (kbar)   9939.45     -0.00     -0.00
                               -0.00   9940.08      0.00
                               -0.00      0.00  -9112.01

     exc-cor stress (kbar)   -164.97      0.00     -0.00
                                0.00   -164.94      0.00
                               -0.00      0.00   -269.70

     corecor stress (kbar)  -2235.82     -0.00     -0.00
                               -0.00  -2235.84      0.00
                                0.00      0.00  -2197.72

     ewald   stress (kbar)   8148.85     -0.00     -0.00
                               -0.00   8153.39      0.00
                               -0.00      0.00 -27695.59

     hubbard stress (kbar)      0.00      0.00      0.00
                                0.00      0.00      0.00
                                0.00      0.00      0.00

     DFT-D   stress (kbar)      0.00      0.00      0.00
                                0.00      0.00      0.00
                                0.00      0.00      0.00

     XDM     stress (kbar)      0.00      0.00      0.00
                                0.00      0.00      0.00
                                0.00      0.00      0.00

     dft-nl  stress (kbar)      0.00      0.00      0.00
                                0.00      0.00      0.00
                                0.00      0.00      0.00

     TS-vdW  stress (kbar)      0.00      0.00      0.00
                                0.00      0.00      0.00
                                0.00      0.00      0.00



     Writing output data file ./tmp/C.save/

     init_run     :     31.71s CPU     38.29s WALL (       1 calls)
     electrons    :    383.23s CPU    406.33s WALL (       1 calls)
     forces       :      4.45s CPU      4.56s WALL (       1 calls)
     stress       :     10.76s CPU     10.95s WALL (       1 calls)

     Called by init_run:
     wfcinit      :     29.24s CPU     35.37s WALL (       1 calls)
     wfcinit:atom :      0.48s CPU      0.56s WALL (     215 calls)
     wfcinit:wfcr :     25.68s CPU     31.02s WALL (     215 calls)
     potinit      :      0.66s CPU      0.80s WALL (       1 calls)
     hinit0       :      1.41s CPU      1.59s WALL (       1 calls)

     Called by electrons:
     c_bands      :    330.63s CPU    351.83s WALL (       7 calls)
     sum_band     :     49.68s CPU     51.54s WALL (       7 calls)
     v_of_rho     :      2.37s CPU      2.48s WALL (       8 calls)
     v_h          :      0.12s CPU      0.13s WALL (       8 calls)
     v_xc         :      2.89s CPU      2.99s WALL (      10 calls)
     newd         :      0.83s CPU      0.94s WALL (       8 calls)
     mix_rho      :      0.17s CPU      0.18s WALL (       7 calls)

     Called by c_bands:
     init_us_2    :      8.02s CPU      8.74s WALL (    3655 calls)
     cegterg      :    318.77s CPU    338.98s WALL (    1505 calls)

     Called by sum_band:
     sum_band:wei :      0.10s CPU      0.11s WALL (       7 calls)
     sum_band:loo :     48.31s CPU     50.13s WALL (       7 calls)
     sum_band:buf :      0.25s CPU      0.26s WALL (    1505 calls)
     sum_band:ini :      3.02s CPU      3.15s WALL (    1505 calls)
     sum_band:cal :      2.46s CPU      2.54s WALL (    1505 calls)
     sum_band:bec :      0.07s CPU      0.07s WALL (    1505 calls)
     addusdens    :      0.69s CPU      0.71s WALL (       7 calls)
     addusd:skk   :      0.01s CPU      0.01s WALL (       7 calls)
     addusd:dgemm :      0.17s CPU      0.18s WALL (       7 calls)
     addusd:qvan2 :      0.25s CPU      0.25s WALL (       7 calls)

     Called by *egterg:
     cdiaghg      :      4.92s CPU      5.28s WALL (    6410 calls)
     cegterg:over :      8.76s CPU      9.59s WALL (    4905 calls)
     cegterg:upda :      5.30s CPU      5.92s WALL (    4905 calls)
     cegterg:last :      9.39s CPU     10.01s WALL (    3299 calls)
     h_psi        :    300.04s CPU    322.19s WALL (    6625 calls)
     s_psi        :      8.15s CPU      8.71s WALL (    6625 calls)
     g_psi        :      1.63s CPU      1.74s WALL (    4905 calls)

     Called by h_psi:
     h_psi:calbec :      9.27s CPU     10.01s WALL (    6625 calls)
     vloc_psi     :    279.71s CPU    300.34s WALL (    6625 calls)
     add_vuspsi   :      9.18s CPU      9.84s WALL (    6625 calls)

     General routines
     calbec       :     13.09s CPU     13.98s WALL (    9205 calls)
     fft          :      1.22s CPU      1.26s WALL (     127 calls)
     ffts         :      0.08s CPU      0.09s WALL (      15 calls)
     fftw         :    283.92s CPU    304.03s WALL (  121694 calls)
     interpolate  :      0.12s CPU      0.14s WALL (       8 calls)

     Parallel routines

     PWSCF        :   7m10.58s CPU   7m41.07s WALL


   This run was terminated on:  11:52:46  23May2022            

=------------------------------------------------------------------------------=
   JOB DONE.
=------------------------------------------------------------------------------=
