
     Program PWSCF v.6.7MaX starts on 23May2022 at 12:22:23 

     This program is part of the open-source Quantum ESPRESSO suite
     for quantum simulation of materials; please cite
         "P. Giannozzi et al., J. Phys.:Condens. Matter 21 395502 (2009);
         "P. Giannozzi et al., J. Phys.:Condens. Matter 29 465901 (2017);
          URL http://www.quantum-espresso.org", 
     in publications or presentations arising from this work. More details at
     http://www.quantum-espresso.org/quote

     Parallel version (MPI), running on     1 processors

     MPI processes distributed on     1 nodes
     Waiting for input...
     Reading input from standard input

     Current dimensions of program PWSCF are:
     Max number of different atomic species (ntypx) = 10
     Max number of k-points (npk) =  40000
     Max angular momentum in pseudopotentials (lmaxx) =  3

     Subspace diagonalization in iterative solution of the eigenvalue problem:
     a serial algorithm will be used


     G-vector sticks info
     --------------------
     sticks:   dense  smooth     PW     G-vecs:    dense   smooth      PW
     Sum         913     451    139                73623    26013    4385



     bravais-lattice index     =            4
     lattice parameter (alat)  =       4.6676  a.u.
     unit-cell volume          =     297.0066 (a.u.)^3
     number of atoms/cell      =            4
     number of atomic types    =            1
     number of electrons       =        16.00
     number of Kohn-Sham states=           12
     kinetic-energy cutoff     =      75.0000  Ry
     charge density cutoff     =     600.0000  Ry
     scf convergence threshold =      1.0E-09
     mixing beta               =       0.7000
     number of iterations used =            8  plain     mixing
     Exchange-correlation= PBE
                           (   1   4   3   4   0   0   0)

     celldm(1)=   4.667624  celldm(2)=   1.000000  celldm(3)=   3.372470
     celldm(4)=   0.000000  celldm(5)=   0.000000  celldm(6)=   0.000000

     crystal axes: (cart. coord. in units of alat)
               a(1) = (   1.000000   0.000000   0.000000 )  
               a(2) = (  -0.500000   0.866025   0.000000 )  
               a(3) = (   0.000000   0.000000   3.372470 )  

     reciprocal axes: (cart. coord. in units 2 pi/alat)
               b(1) = (  1.000000  0.577350 -0.000000 )  
               b(2) = (  0.000000  1.154701  0.000000 )  
               b(3) = (  0.000000 -0.000000  0.296519 )  


     PseudoPot. # 1 for C  read from file:
     /home/max/Desktop/graphite_DFT/Pseudo/C.pbe-n-rrkjus_psl.1.0.0.UPF
     MD5 check sum: 1fdd950c42eb37d8afe3dd2f8d12311e
     Pseudo is Ultrasoft + core correction, Zval =  4.0
     Generated using &quot;atomic&quot; code by A. Dal Corso  v.6.3MaX
     Using radial grid of 1073 points,  4 beta functions with: 
                l(1) =   0
                l(2) =   0
                l(3) =   1
                l(4) =   1
     Q(r) pseudized with 0 coefficients 


     atomic species   valence    mass     pseudopotential
        C              4.00    12.01100     C ( 1.00)

      8 Sym. Ops., with inversion, found ( 4 have fractional translation)


                                    s                        frac. trans.

      isym =  1     identity                                     

 cryst.   s( 1) = (     1          0          0      )
                  (     0          1          0      )
                  (     0          0          1      )

 cart.    s( 1) = (  1.0000000  0.0000000  0.0000000 )
                  (  0.0000000  1.0000000  0.0000000 )
                  (  0.0000000  0.0000000  1.0000000 )


      isym =  2     180 deg rotation - cart. axis [0,0,1]        

 cryst.   s( 2) = (    -1          0          0      )    f =(  0.0000000 )
                  (     0         -1          0      )       (  0.0000000 )
                  (     0          0          1      )       ( -0.5000000 )

 cart.    s( 2) = ( -1.0000000  0.0000000  0.0000000 )    f =(  0.0000000 )
                  (  0.0000000 -1.0000000  0.0000000 )       (  0.0000000 )
                  (  0.0000000  0.0000000  1.0000000 )       ( -1.6862348 )


      isym =  3     180 deg rotation - cart. axis [0,1,0]        

 cryst.   s( 3) = (    -1          0          0      )    f =(  0.0000000 )
                  (     1          1          0      )       (  0.0000000 )
                  (     0          0         -1      )       (  0.5000000 )

 cart.    s( 3) = ( -1.0000000  0.0000000  0.0000000 )    f =(  0.0000000 )
                  (  0.0000000  1.0000000  0.0000000 )       (  0.0000000 )
                  (  0.0000000  0.0000000 -1.0000000 )       (  1.6862348 )


      isym =  4     180 deg rotation - cart. axis [1,0,0]        

 cryst.   s( 4) = (     1          0          0      )
                  (    -1         -1          0      )
                  (     0          0         -1      )

 cart.    s( 4) = (  1.0000000  0.0000000  0.0000000 )
                  (  0.0000000 -1.0000000  0.0000000 )
                  (  0.0000000  0.0000000 -1.0000000 )


      isym =  5     inversion                                    

 cryst.   s( 5) = (    -1          0          0      )
                  (     0         -1          0      )
                  (     0          0         -1      )

 cart.    s( 5) = ( -1.0000000  0.0000000  0.0000000 )
                  (  0.0000000 -1.0000000  0.0000000 )
                  (  0.0000000  0.0000000 -1.0000000 )


      isym =  6     inv. 180 deg rotation - cart. axis [0,0,1]   

 cryst.   s( 6) = (     1          0          0      )    f =(  0.0000000 )
                  (     0          1          0      )       (  0.0000000 )
                  (     0          0         -1      )       (  0.5000000 )

 cart.    s( 6) = (  1.0000000  0.0000000  0.0000000 )    f =(  0.0000000 )
                  (  0.0000000  1.0000000  0.0000000 )       (  0.0000000 )
                  (  0.0000000  0.0000000 -1.0000000 )       (  1.6862348 )


      isym =  7     inv. 180 deg rotation - cart. axis [0,1,0]   

 cryst.   s( 7) = (     1          0          0      )    f =(  0.0000000 )
                  (    -1         -1          0      )       (  0.0000000 )
                  (     0          0          1      )       ( -0.5000000 )

 cart.    s( 7) = (  1.0000000  0.0000000  0.0000000 )    f =(  0.0000000 )
                  (  0.0000000 -1.0000000  0.0000000 )       (  0.0000000 )
                  (  0.0000000  0.0000000  1.0000000 )       ( -1.6862348 )


      isym =  8     inv. 180 deg rotation - cart. axis [1,0,0]   

 cryst.   s( 8) = (    -1          0          0      )
                  (     1          1          0      )
                  (     0          0          1      )

 cart.    s( 8) = ( -1.0000000  0.0000000  0.0000000 )
                  (  0.0000000  1.0000000  0.0000000 )
                  (  0.0000000  0.0000000  1.0000000 )


     point group D_2h (mmm) 
     there are  8 classes
     the character table:

       E     C2    C2'   C2''  i     s_v   s_v'  s_v''
A_g    1.00  1.00  1.00  1.00  1.00  1.00  1.00  1.00
B_1g   1.00  1.00 -1.00 -1.00  1.00  1.00 -1.00 -1.00
B_2g   1.00 -1.00  1.00 -1.00  1.00 -1.00  1.00 -1.00
B_3g   1.00 -1.00 -1.00  1.00  1.00 -1.00 -1.00  1.00
A_u    1.00  1.00  1.00  1.00 -1.00 -1.00 -1.00 -1.00
B_1u   1.00  1.00 -1.00 -1.00 -1.00 -1.00  1.00  1.00
B_2u   1.00 -1.00  1.00 -1.00 -1.00  1.00 -1.00  1.00
B_3u   1.00 -1.00 -1.00  1.00 -1.00  1.00  1.00 -1.00

     the symmetry operations in each class and the name of the first element:

     E        1
          identity                                               
     C2       2
          180 deg rotation - cart. axis [0,0,1]                  
     C2'      4
          180 deg rotation - cart. axis [1,0,0]                  
     C2''     3
          180 deg rotation - cart. axis [0,1,0]                  
     i        5
          inversion                                              
     s_v      6
          inv. 180 deg rotation - cart. axis [0,0,1]             
     s_v'     8
          inv. 180 deg rotation - cart. axis [1,0,0]             
     s_v''    7
          inv. 180 deg rotation - cart. axis [0,1,0]             

   Cartesian axes

     site n.     atom                  positions (alat units)
         1           C   tau(   1) = (   0.0000000   0.0000000   0.8431174  )
         2           C   tau(   2) = (   0.0000000   0.0000000   2.5293522  )
         3           C   tau(   3) = (   0.0000000   0.5772925   0.8431174  )
         4           C   tau(   4) = (   0.5000000   0.2887329   2.5293522  )

   Crystallographic axes

     site n.     atom                  positions (cryst. coord.)
         1           C   tau(   1) = (  0.0000000  0.0000000  0.2500000  )
         2           C   tau(   2) = (  0.0000000  0.0000000  0.7500000  )
         3           C   tau(   3) = (  0.3333000  0.6666000  0.2500000  )
         4           C   tau(   4) = (  0.6667000  0.3334000  0.7500000  )

     number of k points=   215  Methfessel-Paxton smearing, width (Ry)=  0.0300
                       cart. coord. in units 2pi/alat
        k(    1) = (   0.0000000   0.0000000   0.0000000), wk =   0.0017361
        k(    2) = (   0.0000000   0.0000000   0.0370648), wk =   0.0034722
        k(    3) = (   0.0000000   0.0000000   0.0741297), wk =   0.0034722
        k(    4) = (   0.0000000   0.0000000   0.1111945), wk =   0.0034722
        k(    5) = (   0.0000000   0.0000000  -0.1482593), wk =   0.0017361
        k(    6) = (   0.0000000   0.0962250   0.0000000), wk =   0.0034722
        k(    7) = (   0.0000000   0.0962250   0.0370648), wk =   0.0069444
        k(    8) = (   0.0000000   0.0962250   0.0741297), wk =   0.0069444
        k(    9) = (   0.0000000   0.0962250   0.1111945), wk =   0.0069444
        k(   10) = (   0.0000000   0.0962250  -0.1482593), wk =   0.0034722
        k(   11) = (   0.0000000   0.1924501   0.0000000), wk =   0.0034722
        k(   12) = (   0.0000000   0.1924501   0.0370648), wk =   0.0069444
        k(   13) = (   0.0000000   0.1924501   0.0741297), wk =   0.0069444
        k(   14) = (   0.0000000   0.1924501   0.1111945), wk =   0.0069444
        k(   15) = (   0.0000000   0.1924501  -0.1482593), wk =   0.0034722
        k(   16) = (   0.0000000   0.2886751   0.0000000), wk =   0.0034722
        k(   17) = (   0.0000000   0.2886751   0.0370648), wk =   0.0069444
        k(   18) = (   0.0000000   0.2886751   0.0741297), wk =   0.0069444
        k(   19) = (   0.0000000   0.2886751   0.1111945), wk =   0.0069444
        k(   20) = (   0.0000000   0.2886751  -0.1482593), wk =   0.0034722
        k(   21) = (   0.0000000   0.3849002   0.0000000), wk =   0.0034722
        k(   22) = (   0.0000000   0.3849002   0.0370648), wk =   0.0069444
        k(   23) = (   0.0000000   0.3849002   0.0741297), wk =   0.0069444
        k(   24) = (   0.0000000   0.3849002   0.1111945), wk =   0.0069444
        k(   25) = (   0.0000000   0.3849002  -0.1482593), wk =   0.0034722
        k(   26) = (   0.0000000   0.4811252   0.0000000), wk =   0.0034722
        k(   27) = (   0.0000000   0.4811252   0.0370648), wk =   0.0069444
        k(   28) = (   0.0000000   0.4811252   0.0741297), wk =   0.0069444
        k(   29) = (   0.0000000   0.4811252   0.1111945), wk =   0.0069444
        k(   30) = (   0.0000000   0.4811252  -0.1482593), wk =   0.0034722
        k(   31) = (   0.0000000  -0.5773503   0.0000000), wk =   0.0017361
        k(   32) = (   0.0000000  -0.5773503   0.0370648), wk =   0.0034722
        k(   33) = (   0.0000000  -0.5773503   0.0741297), wk =   0.0034722
        k(   34) = (   0.0000000  -0.5773503   0.1111945), wk =   0.0034722
        k(   35) = (   0.0000000  -0.5773503  -0.1482593), wk =   0.0017361
        k(   36) = (   0.0833333   0.1443376   0.0000000), wk =   0.0069444
        k(   37) = (   0.0833333   0.1443376   0.0370648), wk =   0.0138889
        k(   38) = (   0.0833333   0.1443376   0.0741297), wk =   0.0138889
        k(   39) = (   0.0833333   0.1443376   0.1111945), wk =   0.0138889
        k(   40) = (   0.0833333   0.1443376  -0.1482593), wk =   0.0069444
        k(   41) = (   0.0833333   0.2405626   0.0000000), wk =   0.0069444
        k(   42) = (   0.0833333   0.2405626   0.0370648), wk =   0.0138889
        k(   43) = (   0.0833333   0.2405626   0.0741297), wk =   0.0138889
        k(   44) = (   0.0833333   0.2405626   0.1111945), wk =   0.0138889
        k(   45) = (   0.0833333   0.2405626  -0.1482593), wk =   0.0069444
        k(   46) = (   0.0833333   0.3367877   0.0000000), wk =   0.0069444
        k(   47) = (   0.0833333   0.3367877   0.0370648), wk =   0.0138889
        k(   48) = (   0.0833333   0.3367877   0.0741297), wk =   0.0138889
        k(   49) = (   0.0833333   0.3367877   0.1111945), wk =   0.0138889
        k(   50) = (   0.0833333   0.3367877  -0.1482593), wk =   0.0069444
        k(   51) = (   0.0833333   0.4330127   0.0000000), wk =   0.0069444
        k(   52) = (   0.0833333   0.4330127   0.0370648), wk =   0.0138889
        k(   53) = (   0.0833333   0.4330127   0.0741297), wk =   0.0138889
        k(   54) = (   0.0833333   0.4330127   0.1111945), wk =   0.0138889
        k(   55) = (   0.0833333   0.4330127  -0.1482593), wk =   0.0069444
        k(   56) = (   0.0833333   0.5292377   0.0000000), wk =   0.0069444
        k(   57) = (   0.0833333   0.5292377   0.0370648), wk =   0.0138889
        k(   58) = (   0.0833333   0.5292377   0.0741297), wk =   0.0138889
        k(   59) = (   0.0833333   0.5292377   0.1111945), wk =   0.0138889
        k(   60) = (   0.0833333   0.5292377  -0.1482593), wk =   0.0069444
        k(   61) = (   0.1666667   0.2886751   0.0000000), wk =   0.0069444
        k(   62) = (   0.1666667   0.2886751   0.0370648), wk =   0.0138889
        k(   63) = (   0.1666667   0.2886751   0.0741297), wk =   0.0138889
        k(   64) = (   0.1666667   0.2886751   0.1111945), wk =   0.0138889
        k(   65) = (   0.1666667   0.2886751  -0.1482593), wk =   0.0069444
        k(   66) = (   0.1666667   0.3849002   0.0000000), wk =   0.0069444
        k(   67) = (   0.1666667   0.3849002   0.0370648), wk =   0.0138889
        k(   68) = (   0.1666667   0.3849002   0.0741297), wk =   0.0138889
        k(   69) = (   0.1666667   0.3849002   0.1111945), wk =   0.0138889
        k(   70) = (   0.1666667   0.3849002  -0.1482593), wk =   0.0069444
        k(   71) = (   0.1666667   0.4811252   0.0000000), wk =   0.0069444
        k(   72) = (   0.1666667   0.4811252   0.0370648), wk =   0.0138889
        k(   73) = (   0.1666667   0.4811252   0.0741297), wk =   0.0138889
        k(   74) = (   0.1666667   0.4811252   0.1111945), wk =   0.0138889
        k(   75) = (   0.1666667   0.4811252  -0.1482593), wk =   0.0069444
        k(   76) = (   0.1666667   0.5773503   0.0000000), wk =   0.0034722
        k(   77) = (   0.1666667   0.5773503   0.0370648), wk =   0.0069444
        k(   78) = (   0.1666667   0.5773503   0.0741297), wk =   0.0069444
        k(   79) = (   0.1666667   0.5773503   0.1111945), wk =   0.0069444
        k(   80) = (   0.1666667   0.5773503  -0.1482593), wk =   0.0034722
        k(   81) = (   0.2500000   0.4330127   0.0000000), wk =   0.0069444
        k(   82) = (   0.2500000   0.4330127   0.0370648), wk =   0.0138889
        k(   83) = (   0.2500000   0.4330127   0.0741297), wk =   0.0138889
        k(   84) = (   0.2500000   0.4330127   0.1111945), wk =   0.0138889
        k(   85) = (   0.2500000   0.4330127  -0.1482593), wk =   0.0069444
        k(   86) = (   0.2500000   0.5292377   0.0000000), wk =   0.0069444
        k(   87) = (   0.2500000   0.5292377   0.0370648), wk =   0.0138889
        k(   88) = (   0.2500000   0.5292377   0.0741297), wk =   0.0138889
        k(   89) = (   0.2500000   0.5292377   0.1111945), wk =   0.0138889
        k(   90) = (   0.2500000   0.5292377  -0.1482593), wk =   0.0069444
        k(   91) = (   0.3333333   0.5773503   0.0000000), wk =   0.0034722
        k(   92) = (   0.3333333   0.5773503   0.0370648), wk =   0.0069444
        k(   93) = (   0.3333333   0.5773503   0.0741297), wk =   0.0069444
        k(   94) = (   0.3333333   0.5773503   0.1111945), wk =   0.0069444
        k(   95) = (   0.3333333   0.5773503  -0.1482593), wk =   0.0034722
        k(   96) = (  -0.0833333  -0.0481125   0.0000000), wk =   0.0069444
        k(   97) = (  -0.0833333  -0.0481125  -0.0370648), wk =   0.0138889
        k(   98) = (  -0.0833333  -0.0481125  -0.0741297), wk =   0.0138889
        k(   99) = (  -0.0833333  -0.0481125  -0.1111945), wk =   0.0138889
        k(  100) = (  -0.0833333  -0.0481125   0.1482593), wk =   0.0069444
        k(  101) = (  -0.1666667  -0.0962250   0.0000000), wk =   0.0069444
        k(  102) = (  -0.1666667  -0.0962250  -0.0370648), wk =   0.0138889
        k(  103) = (  -0.1666667  -0.0962250  -0.0741297), wk =   0.0138889
        k(  104) = (  -0.1666667  -0.0962250  -0.1111945), wk =   0.0138889
        k(  105) = (  -0.1666667  -0.0962250   0.1482593), wk =   0.0069444
        k(  106) = (  -0.2500000  -0.1443376   0.0000000), wk =   0.0069444
        k(  107) = (  -0.2500000  -0.1443376  -0.0370648), wk =   0.0138889
        k(  108) = (  -0.2500000  -0.1443376  -0.0741297), wk =   0.0138889
        k(  109) = (  -0.2500000  -0.1443376  -0.1111945), wk =   0.0138889
        k(  110) = (  -0.2500000  -0.1443376   0.1482593), wk =   0.0069444
        k(  111) = (  -0.3333333  -0.1924501   0.0000000), wk =   0.0069444
        k(  112) = (  -0.3333333  -0.1924501  -0.0370648), wk =   0.0138889
        k(  113) = (  -0.3333333  -0.1924501  -0.0741297), wk =   0.0138889
        k(  114) = (  -0.3333333  -0.1924501  -0.1111945), wk =   0.0138889
        k(  115) = (  -0.3333333  -0.1924501   0.1482593), wk =   0.0069444
        k(  116) = (  -0.4166667  -0.2405626   0.0000000), wk =   0.0069444
        k(  117) = (  -0.4166667  -0.2405626  -0.0370648), wk =   0.0138889
        k(  118) = (  -0.4166667  -0.2405626  -0.0741297), wk =   0.0138889
        k(  119) = (  -0.4166667  -0.2405626  -0.1111945), wk =   0.0138889
        k(  120) = (  -0.4166667  -0.2405626   0.1482593), wk =   0.0069444
        k(  121) = (   0.5000000   0.2886751   0.0000000), wk =   0.0034722
        k(  122) = (   0.5000000   0.2886751  -0.0370648), wk =   0.0069444
        k(  123) = (   0.5000000   0.2886751  -0.0741297), wk =   0.0069444
        k(  124) = (   0.5000000   0.2886751  -0.1111945), wk =   0.0069444
        k(  125) = (   0.5000000   0.2886751   0.1482593), wk =   0.0034722
        k(  126) = (   0.1666667   0.0000000   0.0000000), wk =   0.0034722
        k(  127) = (   0.1666667   0.0000000  -0.0370648), wk =   0.0069444
        k(  128) = (   0.1666667   0.0000000  -0.0741297), wk =   0.0069444
        k(  129) = (   0.1666667   0.0000000  -0.1111945), wk =   0.0069444
        k(  130) = (   0.1666667   0.0000000   0.1482593), wk =   0.0034722
        k(  131) = (  -0.1666667  -0.1924501   0.0000000), wk =   0.0069444
        k(  132) = (   0.2500000  -0.0481125   0.0000000), wk =   0.0069444
        k(  133) = (  -0.1666667  -0.1924501  -0.0370648), wk =   0.0138889
        k(  134) = (   0.2500000  -0.0481125  -0.0370648), wk =   0.0138889
        k(  135) = (  -0.1666667  -0.1924501  -0.0741297), wk =   0.0138889
        k(  136) = (   0.2500000  -0.0481125  -0.0741297), wk =   0.0138889
        k(  137) = (  -0.1666667  -0.1924501  -0.1111945), wk =   0.0138889
        k(  138) = (   0.2500000  -0.0481125  -0.1111945), wk =   0.0138889
        k(  139) = (  -0.1666667  -0.1924501   0.1482593), wk =   0.0069444
        k(  140) = (   0.2500000  -0.0481125   0.1482593), wk =   0.0069444
        k(  141) = (  -0.2500000  -0.2405626   0.0000000), wk =   0.0069444
        k(  142) = (   0.3333333  -0.0962250   0.0000000), wk =   0.0069444
        k(  143) = (  -0.2500000  -0.2405626  -0.0370648), wk =   0.0138889
        k(  144) = (   0.3333333  -0.0962250  -0.0370648), wk =   0.0138889
        k(  145) = (  -0.2500000  -0.2405626  -0.0741297), wk =   0.0138889
        k(  146) = (   0.3333333  -0.0962250  -0.0741297), wk =   0.0138889
        k(  147) = (  -0.2500000  -0.2405626  -0.1111945), wk =   0.0138889
        k(  148) = (   0.3333333  -0.0962250  -0.1111945), wk =   0.0138889
        k(  149) = (  -0.2500000  -0.2405626   0.1482593), wk =   0.0069444
        k(  150) = (   0.3333333  -0.0962250   0.1482593), wk =   0.0069444
        k(  151) = (  -0.3333333  -0.2886751   0.0000000), wk =   0.0069444
        k(  152) = (   0.4166667  -0.1443376   0.0000000), wk =   0.0069444
        k(  153) = (  -0.3333333  -0.2886751  -0.0370648), wk =   0.0138889
        k(  154) = (   0.4166667  -0.1443376  -0.0370648), wk =   0.0138889
        k(  155) = (  -0.3333333  -0.2886751  -0.0741297), wk =   0.0138889
        k(  156) = (   0.4166667  -0.1443376  -0.0741297), wk =   0.0138889
        k(  157) = (  -0.3333333  -0.2886751  -0.1111945), wk =   0.0138889
        k(  158) = (   0.4166667  -0.1443376  -0.1111945), wk =   0.0138889
        k(  159) = (  -0.3333333  -0.2886751   0.1482593), wk =   0.0069444
        k(  160) = (   0.4166667  -0.1443376   0.1482593), wk =   0.0069444
        k(  161) = (  -0.4166667  -0.3367877   0.0000000), wk =   0.0069444
        k(  162) = (   0.5000000  -0.1924501   0.0000000), wk =   0.0069444
        k(  163) = (  -0.4166667  -0.3367877  -0.0370648), wk =   0.0138889
        k(  164) = (   0.5000000  -0.1924501  -0.0370648), wk =   0.0138889
        k(  165) = (  -0.4166667  -0.3367877  -0.0741297), wk =   0.0138889
        k(  166) = (   0.5000000  -0.1924501  -0.0741297), wk =   0.0138889
        k(  167) = (  -0.4166667  -0.3367877  -0.1111945), wk =   0.0138889
        k(  168) = (   0.5000000  -0.1924501  -0.1111945), wk =   0.0138889
        k(  169) = (  -0.4166667  -0.3367877   0.1482593), wk =   0.0069444
        k(  170) = (   0.5000000  -0.1924501   0.1482593), wk =   0.0069444
        k(  171) = (   0.3333333   0.0000000   0.0000000), wk =   0.0034722
        k(  172) = (   0.3333333   0.0000000  -0.0370648), wk =   0.0069444
        k(  173) = (   0.3333333   0.0000000  -0.0741297), wk =   0.0069444
        k(  174) = (   0.3333333   0.0000000  -0.1111945), wk =   0.0069444
        k(  175) = (   0.3333333   0.0000000   0.1482593), wk =   0.0034722
        k(  176) = (  -0.2500000  -0.3367877   0.0000000), wk =   0.0069444
        k(  177) = (   0.4166667  -0.0481125   0.0000000), wk =   0.0069444
        k(  178) = (  -0.2500000  -0.3367877  -0.0370648), wk =   0.0138889
        k(  179) = (   0.4166667  -0.0481125  -0.0370648), wk =   0.0138889
        k(  180) = (  -0.2500000  -0.3367877  -0.0741297), wk =   0.0138889
        k(  181) = (   0.4166667  -0.0481125  -0.0741297), wk =   0.0138889
        k(  182) = (  -0.2500000  -0.3367877  -0.1111945), wk =   0.0138889
        k(  183) = (   0.4166667  -0.0481125  -0.1111945), wk =   0.0138889
        k(  184) = (  -0.2500000  -0.3367877   0.1482593), wk =   0.0069444
        k(  185) = (   0.4166667  -0.0481125   0.1482593), wk =   0.0069444
        k(  186) = (  -0.3333333  -0.3849002   0.0000000), wk =   0.0069444
        k(  187) = (   0.5000000  -0.0962250   0.0000000), wk =   0.0069444
        k(  188) = (  -0.3333333  -0.3849002  -0.0370648), wk =   0.0138889
        k(  189) = (   0.5000000  -0.0962250  -0.0370648), wk =   0.0138889
        k(  190) = (  -0.3333333  -0.3849002  -0.0741297), wk =   0.0138889
        k(  191) = (   0.5000000  -0.0962250  -0.0741297), wk =   0.0138889
        k(  192) = (  -0.3333333  -0.3849002  -0.1111945), wk =   0.0138889
        k(  193) = (   0.5000000  -0.0962250  -0.1111945), wk =   0.0138889
        k(  194) = (  -0.3333333  -0.3849002   0.1482593), wk =   0.0069444
        k(  195) = (   0.5000000  -0.0962250   0.1482593), wk =   0.0069444
        k(  196) = (  -0.4166667  -0.4330127   0.0000000), wk =   0.0069444
        k(  197) = (  -0.4166667  -0.4330127  -0.0370648), wk =   0.0138889
        k(  198) = (  -0.4166667  -0.4330127  -0.0741297), wk =   0.0138889
        k(  199) = (  -0.4166667  -0.4330127  -0.1111945), wk =   0.0138889
        k(  200) = (  -0.4166667  -0.4330127   0.1482593), wk =   0.0069444
        k(  201) = (   0.5000000  -0.0000000   0.0000000), wk =   0.0034722
        k(  202) = (   0.5000000  -0.0000000  -0.0370648), wk =   0.0069444
        k(  203) = (   0.5000000  -0.0000000  -0.0741297), wk =   0.0069444
        k(  204) = (   0.5000000  -0.0000000  -0.1111945), wk =   0.0069444
        k(  205) = (   0.5000000  -0.0000000   0.1482593), wk =   0.0034722
        k(  206) = (  -0.3333333  -0.4811252   0.0000000), wk =   0.0069444
        k(  207) = (   0.5833333  -0.0481125   0.0000000), wk =   0.0069444
        k(  208) = (  -0.3333333  -0.4811252  -0.0370648), wk =   0.0138889
        k(  209) = (   0.5833333  -0.0481125  -0.0370648), wk =   0.0138889
        k(  210) = (  -0.3333333  -0.4811252  -0.0741297), wk =   0.0138889
        k(  211) = (   0.5833333  -0.0481125  -0.0741297), wk =   0.0138889
        k(  212) = (  -0.3333333  -0.4811252  -0.1111945), wk =   0.0138889
        k(  213) = (   0.5833333  -0.0481125  -0.1111945), wk =   0.0138889
        k(  214) = (  -0.3333333  -0.4811252   0.1482593), wk =   0.0069444
        k(  215) = (   0.5833333  -0.0481125   0.1482593), wk =   0.0069444

                       cryst. coord.
        k(    1) = (   0.0000000   0.0000000   0.0000000), wk =   0.0017361
        k(    2) = (   0.0000000   0.0000000   0.1250000), wk =   0.0034722
        k(    3) = (   0.0000000   0.0000000   0.2500000), wk =   0.0034722
        k(    4) = (   0.0000000   0.0000000   0.3750000), wk =   0.0034722
        k(    5) = (   0.0000000   0.0000000  -0.5000000), wk =   0.0017361
        k(    6) = (   0.0000000   0.0833333   0.0000000), wk =   0.0034722
        k(    7) = (   0.0000000   0.0833333   0.1250000), wk =   0.0069444
        k(    8) = (   0.0000000   0.0833333   0.2500000), wk =   0.0069444
        k(    9) = (   0.0000000   0.0833333   0.3750000), wk =   0.0069444
        k(   10) = (   0.0000000   0.0833333  -0.5000000), wk =   0.0034722
        k(   11) = (   0.0000000   0.1666667   0.0000000), wk =   0.0034722
        k(   12) = (   0.0000000   0.1666667   0.1250000), wk =   0.0069444
        k(   13) = (   0.0000000   0.1666667   0.2500000), wk =   0.0069444
        k(   14) = (   0.0000000   0.1666667   0.3750000), wk =   0.0069444
        k(   15) = (   0.0000000   0.1666667  -0.5000000), wk =   0.0034722
        k(   16) = (   0.0000000   0.2500000   0.0000000), wk =   0.0034722
        k(   17) = (   0.0000000   0.2500000   0.1250000), wk =   0.0069444
        k(   18) = (   0.0000000   0.2500000   0.2500000), wk =   0.0069444
        k(   19) = (   0.0000000   0.2500000   0.3750000), wk =   0.0069444
        k(   20) = (   0.0000000   0.2500000  -0.5000000), wk =   0.0034722
        k(   21) = (   0.0000000   0.3333333   0.0000000), wk =   0.0034722
        k(   22) = (   0.0000000   0.3333333   0.1250000), wk =   0.0069444
        k(   23) = (   0.0000000   0.3333333   0.2500000), wk =   0.0069444
        k(   24) = (   0.0000000   0.3333333   0.3750000), wk =   0.0069444
        k(   25) = (   0.0000000   0.3333333  -0.5000000), wk =   0.0034722
        k(   26) = (   0.0000000   0.4166667   0.0000000), wk =   0.0034722
        k(   27) = (   0.0000000   0.4166667   0.1250000), wk =   0.0069444
        k(   28) = (   0.0000000   0.4166667   0.2500000), wk =   0.0069444
        k(   29) = (   0.0000000   0.4166667   0.3750000), wk =   0.0069444
        k(   30) = (   0.0000000   0.4166667  -0.5000000), wk =   0.0034722
        k(   31) = (   0.0000000  -0.5000000   0.0000000), wk =   0.0017361
        k(   32) = (   0.0000000  -0.5000000   0.1250000), wk =   0.0034722
        k(   33) = (   0.0000000  -0.5000000   0.2500000), wk =   0.0034722
        k(   34) = (   0.0000000  -0.5000000   0.3750000), wk =   0.0034722
        k(   35) = (   0.0000000  -0.5000000  -0.5000000), wk =   0.0017361
        k(   36) = (   0.0833333   0.0833333   0.0000000), wk =   0.0069444
        k(   37) = (   0.0833333   0.0833333   0.1250000), wk =   0.0138889
        k(   38) = (   0.0833333   0.0833333   0.2500000), wk =   0.0138889
        k(   39) = (   0.0833333   0.0833333   0.3750000), wk =   0.0138889
        k(   40) = (   0.0833333   0.0833333  -0.5000000), wk =   0.0069444
        k(   41) = (   0.0833333   0.1666667   0.0000000), wk =   0.0069444
        k(   42) = (   0.0833333   0.1666667   0.1250000), wk =   0.0138889
        k(   43) = (   0.0833333   0.1666667   0.2500000), wk =   0.0138889
        k(   44) = (   0.0833333   0.1666667   0.3750000), wk =   0.0138889
        k(   45) = (   0.0833333   0.1666667  -0.5000000), wk =   0.0069444
        k(   46) = (   0.0833333   0.2500000   0.0000000), wk =   0.0069444
        k(   47) = (   0.0833333   0.2500000   0.1250000), wk =   0.0138889
        k(   48) = (   0.0833333   0.2500000   0.2500000), wk =   0.0138889
        k(   49) = (   0.0833333   0.2500000   0.3750000), wk =   0.0138889
        k(   50) = (   0.0833333   0.2500000  -0.5000000), wk =   0.0069444
        k(   51) = (   0.0833333   0.3333333   0.0000000), wk =   0.0069444
        k(   52) = (   0.0833333   0.3333333   0.1250000), wk =   0.0138889
        k(   53) = (   0.0833333   0.3333333   0.2500000), wk =   0.0138889
        k(   54) = (   0.0833333   0.3333333   0.3750000), wk =   0.0138889
        k(   55) = (   0.0833333   0.3333333  -0.5000000), wk =   0.0069444
        k(   56) = (   0.0833333   0.4166667   0.0000000), wk =   0.0069444
        k(   57) = (   0.0833333   0.4166667   0.1250000), wk =   0.0138889
        k(   58) = (   0.0833333   0.4166667   0.2500000), wk =   0.0138889
        k(   59) = (   0.0833333   0.4166667   0.3750000), wk =   0.0138889
        k(   60) = (   0.0833333   0.4166667  -0.5000000), wk =   0.0069444
        k(   61) = (   0.1666667   0.1666667   0.0000000), wk =   0.0069444
        k(   62) = (   0.1666667   0.1666667   0.1250000), wk =   0.0138889
        k(   63) = (   0.1666667   0.1666667   0.2500000), wk =   0.0138889
        k(   64) = (   0.1666667   0.1666667   0.3750000), wk =   0.0138889
        k(   65) = (   0.1666667   0.1666667  -0.5000000), wk =   0.0069444
        k(   66) = (   0.1666667   0.2500000   0.0000000), wk =   0.0069444
        k(   67) = (   0.1666667   0.2500000   0.1250000), wk =   0.0138889
        k(   68) = (   0.1666667   0.2500000   0.2500000), wk =   0.0138889
        k(   69) = (   0.1666667   0.2500000   0.3750000), wk =   0.0138889
        k(   70) = (   0.1666667   0.2500000  -0.5000000), wk =   0.0069444
        k(   71) = (   0.1666667   0.3333333   0.0000000), wk =   0.0069444
        k(   72) = (   0.1666667   0.3333333   0.1250000), wk =   0.0138889
        k(   73) = (   0.1666667   0.3333333   0.2500000), wk =   0.0138889
        k(   74) = (   0.1666667   0.3333333   0.3750000), wk =   0.0138889
        k(   75) = (   0.1666667   0.3333333  -0.5000000), wk =   0.0069444
        k(   76) = (   0.1666667   0.4166667   0.0000000), wk =   0.0034722
        k(   77) = (   0.1666667   0.4166667   0.1250000), wk =   0.0069444
        k(   78) = (   0.1666667   0.4166667   0.2500000), wk =   0.0069444
        k(   79) = (   0.1666667   0.4166667   0.3750000), wk =   0.0069444
        k(   80) = (   0.1666667   0.4166667  -0.5000000), wk =   0.0034722
        k(   81) = (   0.2500000   0.2500000   0.0000000), wk =   0.0069444
        k(   82) = (   0.2500000   0.2500000   0.1250000), wk =   0.0138889
        k(   83) = (   0.2500000   0.2500000   0.2500000), wk =   0.0138889
        k(   84) = (   0.2500000   0.2500000   0.3750000), wk =   0.0138889
        k(   85) = (   0.2500000   0.2500000  -0.5000000), wk =   0.0069444
        k(   86) = (   0.2500000   0.3333333   0.0000000), wk =   0.0069444
        k(   87) = (   0.2500000   0.3333333   0.1250000), wk =   0.0138889
        k(   88) = (   0.2500000   0.3333333   0.2500000), wk =   0.0138889
        k(   89) = (   0.2500000   0.3333333   0.3750000), wk =   0.0138889
        k(   90) = (   0.2500000   0.3333333  -0.5000000), wk =   0.0069444
        k(   91) = (   0.3333333   0.3333333   0.0000000), wk =   0.0034722
        k(   92) = (   0.3333333   0.3333333   0.1250000), wk =   0.0069444
        k(   93) = (   0.3333333   0.3333333   0.2500000), wk =   0.0069444
        k(   94) = (   0.3333333   0.3333333   0.3750000), wk =   0.0069444
        k(   95) = (   0.3333333   0.3333333  -0.5000000), wk =   0.0034722
        k(   96) = (  -0.0833333  -0.0000000   0.0000000), wk =   0.0069444
        k(   97) = (  -0.0833333  -0.0000000  -0.1250000), wk =   0.0138889
        k(   98) = (  -0.0833333  -0.0000000  -0.2500000), wk =   0.0138889
        k(   99) = (  -0.0833333  -0.0000000  -0.3750000), wk =   0.0138889
        k(  100) = (  -0.0833333  -0.0000000   0.5000000), wk =   0.0069444
        k(  101) = (  -0.1666667  -0.0000000   0.0000000), wk =   0.0069444
        k(  102) = (  -0.1666667  -0.0000000  -0.1250000), wk =   0.0138889
        k(  103) = (  -0.1666667  -0.0000000  -0.2500000), wk =   0.0138889
        k(  104) = (  -0.1666667  -0.0000000  -0.3750000), wk =   0.0138889
        k(  105) = (  -0.1666667  -0.0000000   0.5000000), wk =   0.0069444
        k(  106) = (  -0.2500000   0.0000000   0.0000000), wk =   0.0069444
        k(  107) = (  -0.2500000   0.0000000  -0.1250000), wk =   0.0138889
        k(  108) = (  -0.2500000   0.0000000  -0.2500000), wk =   0.0138889
        k(  109) = (  -0.2500000   0.0000000  -0.3750000), wk =   0.0138889
        k(  110) = (  -0.2500000   0.0000000   0.5000000), wk =   0.0069444
        k(  111) = (  -0.3333333  -0.0000000   0.0000000), wk =   0.0069444
        k(  112) = (  -0.3333333  -0.0000000  -0.1250000), wk =   0.0138889
        k(  113) = (  -0.3333333  -0.0000000  -0.2500000), wk =   0.0138889
        k(  114) = (  -0.3333333  -0.0000000  -0.3750000), wk =   0.0138889
        k(  115) = (  -0.3333333  -0.0000000   0.5000000), wk =   0.0069444
        k(  116) = (  -0.4166667   0.0000000   0.0000000), wk =   0.0069444
        k(  117) = (  -0.4166667   0.0000000  -0.1250000), wk =   0.0138889
        k(  118) = (  -0.4166667   0.0000000  -0.2500000), wk =   0.0138889
        k(  119) = (  -0.4166667   0.0000000  -0.3750000), wk =   0.0138889
        k(  120) = (  -0.4166667   0.0000000   0.5000000), wk =   0.0069444
        k(  121) = (   0.5000000   0.0000000   0.0000000), wk =   0.0034722
        k(  122) = (   0.5000000   0.0000000  -0.1250000), wk =   0.0069444
        k(  123) = (   0.5000000   0.0000000  -0.2500000), wk =   0.0069444
        k(  124) = (   0.5000000   0.0000000  -0.3750000), wk =   0.0069444
        k(  125) = (   0.5000000   0.0000000   0.5000000), wk =   0.0034722
        k(  126) = (   0.1666667  -0.0833333   0.0000000), wk =   0.0034722
        k(  127) = (   0.1666667  -0.0833333  -0.1250000), wk =   0.0069444
        k(  128) = (   0.1666667  -0.0833333  -0.2500000), wk =   0.0069444
        k(  129) = (   0.1666667  -0.0833333  -0.3750000), wk =   0.0069444
        k(  130) = (   0.1666667  -0.0833333   0.5000000), wk =   0.0034722
        k(  131) = (  -0.1666667  -0.0833333   0.0000000), wk =   0.0069444
        k(  132) = (   0.2500000  -0.1666667   0.0000000), wk =   0.0069444
        k(  133) = (  -0.1666667  -0.0833333  -0.1250000), wk =   0.0138889
        k(  134) = (   0.2500000  -0.1666667  -0.1250000), wk =   0.0138889
        k(  135) = (  -0.1666667  -0.0833333  -0.2500000), wk =   0.0138889
        k(  136) = (   0.2500000  -0.1666667  -0.2500000), wk =   0.0138889
        k(  137) = (  -0.1666667  -0.0833333  -0.3750000), wk =   0.0138889
        k(  138) = (   0.2500000  -0.1666667  -0.3750000), wk =   0.0138889
        k(  139) = (  -0.1666667  -0.0833333   0.5000000), wk =   0.0069444
        k(  140) = (   0.2500000  -0.1666667   0.5000000), wk =   0.0069444
        k(  141) = (  -0.2500000  -0.0833333   0.0000000), wk =   0.0069444
        k(  142) = (   0.3333333  -0.2500000   0.0000000), wk =   0.0069444
        k(  143) = (  -0.2500000  -0.0833333  -0.1250000), wk =   0.0138889
        k(  144) = (   0.3333333  -0.2500000  -0.1250000), wk =   0.0138889
        k(  145) = (  -0.2500000  -0.0833333  -0.2500000), wk =   0.0138889
        k(  146) = (   0.3333333  -0.2500000  -0.2500000), wk =   0.0138889
        k(  147) = (  -0.2500000  -0.0833333  -0.3750000), wk =   0.0138889
        k(  148) = (   0.3333333  -0.2500000  -0.3750000), wk =   0.0138889
        k(  149) = (  -0.2500000  -0.0833333   0.5000000), wk =   0.0069444
        k(  150) = (   0.3333333  -0.2500000   0.5000000), wk =   0.0069444
        k(  151) = (  -0.3333333  -0.0833333   0.0000000), wk =   0.0069444
        k(  152) = (   0.4166667  -0.3333333   0.0000000), wk =   0.0069444
        k(  153) = (  -0.3333333  -0.0833333  -0.1250000), wk =   0.0138889
        k(  154) = (   0.4166667  -0.3333333  -0.1250000), wk =   0.0138889
        k(  155) = (  -0.3333333  -0.0833333  -0.2500000), wk =   0.0138889
        k(  156) = (   0.4166667  -0.3333333  -0.2500000), wk =   0.0138889
        k(  157) = (  -0.3333333  -0.0833333  -0.3750000), wk =   0.0138889
        k(  158) = (   0.4166667  -0.3333333  -0.3750000), wk =   0.0138889
        k(  159) = (  -0.3333333  -0.0833333   0.5000000), wk =   0.0069444
        k(  160) = (   0.4166667  -0.3333333   0.5000000), wk =   0.0069444
        k(  161) = (  -0.4166667  -0.0833333   0.0000000), wk =   0.0069444
        k(  162) = (   0.5000000  -0.4166667   0.0000000), wk =   0.0069444
        k(  163) = (  -0.4166667  -0.0833333  -0.1250000), wk =   0.0138889
        k(  164) = (   0.5000000  -0.4166667  -0.1250000), wk =   0.0138889
        k(  165) = (  -0.4166667  -0.0833333  -0.2500000), wk =   0.0138889
        k(  166) = (   0.5000000  -0.4166667  -0.2500000), wk =   0.0138889
        k(  167) = (  -0.4166667  -0.0833333  -0.3750000), wk =   0.0138889
        k(  168) = (   0.5000000  -0.4166667  -0.3750000), wk =   0.0138889
        k(  169) = (  -0.4166667  -0.0833333   0.5000000), wk =   0.0069444
        k(  170) = (   0.5000000  -0.4166667   0.5000000), wk =   0.0069444
        k(  171) = (   0.3333333  -0.1666667   0.0000000), wk =   0.0034722
        k(  172) = (   0.3333333  -0.1666667  -0.1250000), wk =   0.0069444
        k(  173) = (   0.3333333  -0.1666667  -0.2500000), wk =   0.0069444
        k(  174) = (   0.3333333  -0.1666667  -0.3750000), wk =   0.0069444
        k(  175) = (   0.3333333  -0.1666667   0.5000000), wk =   0.0034722
        k(  176) = (  -0.2500000  -0.1666667   0.0000000), wk =   0.0069444
        k(  177) = (   0.4166667  -0.2500000   0.0000000), wk =   0.0069444
        k(  178) = (  -0.2500000  -0.1666667  -0.1250000), wk =   0.0138889
        k(  179) = (   0.4166667  -0.2500000  -0.1250000), wk =   0.0138889
        k(  180) = (  -0.2500000  -0.1666667  -0.2500000), wk =   0.0138889
        k(  181) = (   0.4166667  -0.2500000  -0.2500000), wk =   0.0138889
        k(  182) = (  -0.2500000  -0.1666667  -0.3750000), wk =   0.0138889
        k(  183) = (   0.4166667  -0.2500000  -0.3750000), wk =   0.0138889
        k(  184) = (  -0.2500000  -0.1666667   0.5000000), wk =   0.0069444
        k(  185) = (   0.4166667  -0.2500000   0.5000000), wk =   0.0069444
        k(  186) = (  -0.3333333  -0.1666667   0.0000000), wk =   0.0069444
        k(  187) = (   0.5000000  -0.3333333   0.0000000), wk =   0.0069444
        k(  188) = (  -0.3333333  -0.1666667  -0.1250000), wk =   0.0138889
        k(  189) = (   0.5000000  -0.3333333  -0.1250000), wk =   0.0138889
        k(  190) = (  -0.3333333  -0.1666667  -0.2500000), wk =   0.0138889
        k(  191) = (   0.5000000  -0.3333333  -0.2500000), wk =   0.0138889
        k(  192) = (  -0.3333333  -0.1666667  -0.3750000), wk =   0.0138889
        k(  193) = (   0.5000000  -0.3333333  -0.3750000), wk =   0.0138889
        k(  194) = (  -0.3333333  -0.1666667   0.5000000), wk =   0.0069444
        k(  195) = (   0.5000000  -0.3333333   0.5000000), wk =   0.0069444
        k(  196) = (  -0.4166667  -0.1666667   0.0000000), wk =   0.0069444
        k(  197) = (  -0.4166667  -0.1666667  -0.1250000), wk =   0.0138889
        k(  198) = (  -0.4166667  -0.1666667  -0.2500000), wk =   0.0138889
        k(  199) = (  -0.4166667  -0.1666667  -0.3750000), wk =   0.0138889
        k(  200) = (  -0.4166667  -0.1666667   0.5000000), wk =   0.0069444
        k(  201) = (   0.5000000  -0.2500000   0.0000000), wk =   0.0034722
        k(  202) = (   0.5000000  -0.2500000  -0.1250000), wk =   0.0069444
        k(  203) = (   0.5000000  -0.2500000  -0.2500000), wk =   0.0069444
        k(  204) = (   0.5000000  -0.2500000  -0.3750000), wk =   0.0069444
        k(  205) = (   0.5000000  -0.2500000   0.5000000), wk =   0.0034722
        k(  206) = (  -0.3333333  -0.2500000   0.0000000), wk =   0.0069444
        k(  207) = (   0.5833333  -0.3333333   0.0000000), wk =   0.0069444
        k(  208) = (  -0.3333333  -0.2500000  -0.1250000), wk =   0.0138889
        k(  209) = (   0.5833333  -0.3333333  -0.1250000), wk =   0.0138889
        k(  210) = (  -0.3333333  -0.2500000  -0.2500000), wk =   0.0138889
        k(  211) = (   0.5833333  -0.3333333  -0.2500000), wk =   0.0138889
        k(  212) = (  -0.3333333  -0.2500000  -0.3750000), wk =   0.0138889
        k(  213) = (   0.5833333  -0.3333333  -0.3750000), wk =   0.0138889
        k(  214) = (  -0.3333333  -0.2500000   0.5000000), wk =   0.0069444
        k(  215) = (   0.5833333  -0.3333333   0.5000000), wk =   0.0069444

     Dense  grid:    73623 G-vectors     FFT dimensions: (  40,  40, 128)

     Smooth grid:    26013 G-vectors     FFT dimensions: (  25,  25,  90)

     Dynamical RAM for                 wfc:       0.60 MB

     Dynamical RAM for     wfc (w. buffer):     128.86 MB

     Dynamical RAM for           str. fact:       1.12 MB

     Dynamical RAM for           local pot:       0.00 MB

     Dynamical RAM for          nlocal pot:       1.59 MB

     Dynamical RAM for                qrad:       0.56 MB

     Dynamical RAM for          rho,v,vnew:       8.06 MB

     Dynamical RAM for               rhoin:       2.69 MB

     Dynamical RAM for            rho*nmix:      17.97 MB

     Dynamical RAM for           G-vectors:       4.41 MB

     Dynamical RAM for          h,s,v(r/c):       0.03 MB

     Dynamical RAM for          <psi|beta>:       0.01 MB

     Dynamical RAM for                 psi:       1.19 MB

     Dynamical RAM for                hpsi:       1.19 MB

     Dynamical RAM for                spsi:       1.19 MB

     Dynamical RAM for      wfcinit/wfcrot:       1.60 MB

     Dynamical RAM for           addusdens:      52.80 MB

     Dynamical RAM for          addusforce:      60.11 MB

     Dynamical RAM for         addusstress:      56.17 MB

     Estimated static dynamical RAM per process >     175.32 MB

     Estimated max dynamical RAM per process >     235.43 MB

     Check: negative core charge=   -0.000002

     Initial potential from superposition of free atoms

     starting charge   15.99983, renormalised to   16.00000
     Starting wfcs are   16 randomized atomic wfcs

     total cpu time spent up to now is       13.6 secs

     Self-consistent Calculation

     iteration #  1     ecut=    75.00 Ry     beta= 0.70
     Davidson diagonalization with overlap
     ethr =  1.00E-02,  avg # of iterations =  2.9

     total cpu time spent up to now is       43.5 secs

     total energy              =     -49.66476188 Ry
     estimated scf accuracy    <       0.37635685 Ry

     iteration #  2     ecut=    75.00 Ry     beta= 0.70
     Davidson diagonalization with overlap
     ethr =  2.35E-03,  avg # of iterations =  2.5

     total cpu time spent up to now is       68.2 secs

     total energy              =     -49.71532775 Ry
     estimated scf accuracy    <       0.00431171 Ry

     iteration #  3     ecut=    75.00 Ry     beta= 0.70
     Davidson diagonalization with overlap
     ethr =  2.69E-05,  avg # of iterations =  7.1

     total cpu time spent up to now is      102.6 secs

     total energy              =     -49.71575154 Ry
     estimated scf accuracy    <       0.00030593 Ry

     iteration #  4     ecut=    75.00 Ry     beta= 0.70
     Davidson diagonalization with overlap
     c_bands:  1 eigenvalues not converged
     ethr =  1.91E-06,  avg # of iterations =  4.1

     total cpu time spent up to now is      127.7 secs

     total energy              =     -49.71577009 Ry
     estimated scf accuracy    <       0.00000210 Ry

     iteration #  5     ecut=    75.00 Ry     beta= 0.70
     Davidson diagonalization with overlap
     ethr =  1.31E-08,  avg # of iterations =  2.9

     total cpu time spent up to now is      155.6 secs

     total energy              =     -49.71577126 Ry
     estimated scf accuracy    <       0.00000007 Ry

     iteration #  6     ecut=    75.00 Ry     beta= 0.70
     Davidson diagonalization with overlap
     ethr =  4.59E-10,  avg # of iterations =  2.2

     total cpu time spent up to now is      181.8 secs

     total energy              =     -49.71577128 Ry
     estimated scf accuracy    <       0.00000002 Ry

     iteration #  7     ecut=    75.00 Ry     beta= 0.70
     Davidson diagonalization with overlap
     ethr =  1.29E-10,  avg # of iterations =  1.6

     total cpu time spent up to now is      203.2 secs

     End of self-consistent calculation

          k = 0.0000 0.0000 0.0000 (  3259 PWs)   bands (ev):

   -14.7005 -14.6552  -3.0632  -2.4993   1.7272   1.7287   1.7315   1.7330
     7.9711  11.4905  13.0911  13.0966

     occupation numbers 
     1.0000   1.0000   1.0000   1.0000   1.0000   1.0000   1.0000   1.0000
    -0.0000  -0.0000  -0.0000  -0.0000

          k = 0.0000 0.0000 0.0371 (  3247 PWs)   bands (ev):

   -14.6988 -14.6569  -3.0435  -2.5229   1.7273   1.7287   1.7315   1.7329
     8.0633  11.2438  13.0917  13.0970

     occupation numbers 
     1.0000   1.0000   1.0000   1.0000   1.0000   1.0000   1.0000   1.0000
    -0.0000  -0.0000  -0.0000  -0.0000

          k = 0.0000 0.0000 0.0741 (  3277 PWs)   bands (ev):

   -14.6939 -14.6619  -2.9869  -2.5890   1.7274   1.7285   1.7317   1.7327
     8.3337  10.6647  13.0919  13.0964

     occupation numbers 
     1.0000   1.0000   1.0000   1.0000   1.0000   1.0000   1.0000   1.0000
    -0.0000  -0.0000  -0.0000  -0.0000

          k = 0.0000 0.0000 0.1112 (  3248 PWs)   bands (ev):

   -14.6866 -14.6693  -2.9002  -2.6852   1.7277   1.7282   1.7319   1.7325
     8.7646   9.9834  13.0937  13.0954

     occupation numbers 
     1.0000   1.0000   1.0000   1.0000   1.0000   1.0000   1.0000   1.0000
    -0.0000  -0.0000  -0.0000  -0.0000

          k = 0.0000 0.0000-0.1483 (  3284 PWs)   bands (ev):

   -14.6780 -14.6780  -2.7946  -2.7946   1.7279   1.7279   1.7322   1.7322
     9.3280   9.3280  13.0941  13.0942

     occupation numbers 
     1.0000   1.0000   1.0000   1.0000   1.0000   1.0000   1.0000   1.0000
    -0.0000  -0.0000  -0.0000  -0.0000

          k = 0.0000 0.0962 0.0000 (  3275 PWs)   bands (ev):

   -14.5370 -14.4923  -2.8657  -2.3067   1.0782   1.0813   1.3941   1.3966
     8.1836  11.6852  13.1488  13.1737

     occupation numbers 
     1.0000   1.0000   1.0000   1.0000   1.0000   1.0000   1.0000   1.0000
    -0.0000  -0.0000  -0.0000  -0.0000

          k = 0.0000 0.0962 0.0371 (  3280 PWs)   bands (ev):

   -14.5353 -14.4940  -2.8462  -2.3300   1.0783   1.0812   1.3942   1.3965
     8.2753  11.4392  13.1531  13.1733

     occupation numbers 
     1.0000   1.0000   1.0000   1.0000   1.0000   1.0000   1.0000   1.0000
    -0.0000  -0.0000  -0.0000  -0.0000

          k = 0.0000 0.0962 0.0741 (  3280 PWs)   bands (ev):

   -14.5305 -14.4989  -2.7901  -2.3955   1.0786   1.0808   1.3945   1.3962
     8.5443  10.8629  13.1595  13.1721

     occupation numbers 
     1.0000   1.0000   1.0000   1.0000   1.0000   1.0000   1.0000   1.0000
    -0.0000  -0.0000  -0.0000  -0.0000

          k = 0.0000 0.0962 0.1112 (  3271 PWs)   bands (ev):

   -14.5233 -14.5062  -2.7041  -2.4908   1.0791   1.0803   1.3949   1.3958
     8.9729  10.1853  13.1641  13.1701

     occupation numbers 
     1.0000   1.0000   1.0000   1.0000   1.0000   1.0000   1.0000   1.0000
    -0.0000  -0.0000  -0.0000  -0.0000

          k = 0.0000 0.0962-0.1483 (  3270 PWs)   bands (ev):

   -14.5148 -14.5148  -2.5994  -2.5994   1.0797   1.0797   1.3953   1.3953
     9.5334   9.5334  13.1675  13.1675

     occupation numbers 
     1.0000   1.0000   1.0000   1.0000   1.0000   1.0000   1.0000   1.0000
    -0.0000  -0.0000  -0.0000  -0.0000

          k = 0.0000 0.1925 0.0000 (  3295 PWs)   bands (ev):

   -14.0484 -14.0054  -2.2783  -1.7343  -0.5551  -0.5483   0.6043   0.6080
     8.8215  12.2526  13.0735  13.1278

     occupation numbers 
     1.0000   1.0000   1.0000   1.0000   1.0000   1.0000   1.0000   1.0000
    -0.0000  -0.0000  -0.0000  -0.0000

          k = 0.0000 0.1925 0.0371 (  3289 PWs)   bands (ev):

   -14.0467 -14.0070  -2.2593  -1.7570  -0.5549  -0.5486   0.6044   0.6078
     8.9116  12.0108  13.0849  13.1273

     occupation numbers 
     1.0000   1.0000   1.0000   1.0000   1.0000   1.0000   1.0000   1.0000
    -0.0000  -0.0000  -0.0000  -0.0000

          k = 0.0000 0.1925 0.0741 (  3280 PWs)   bands (ev):

   -14.0421 -14.0117  -2.2046  -1.8206  -0.5541  -0.5493   0.6048   0.6074
     9.1758  11.4481  13.0991  13.1250

     occupation numbers 
     1.0000   1.0000   1.0000   1.0000   1.0000   1.0000   1.0000   1.0000
    -0.0000  -0.0000  -0.0000  -0.0000

          k = 0.0000 0.1925 0.1112 (  3281 PWs)   bands (ev):

   -14.0352 -14.0188  -2.1207  -1.9132  -0.5530  -0.5504   0.6054   0.6068
     9.5968  10.7857  13.1084  13.1209

     occupation numbers 
     1.0000   1.0000   1.0000   1.0000   1.0000   1.0000   1.0000   1.0000
    -0.0000  -0.0000  -0.0000  -0.0000

          k = 0.0000 0.1925-0.1483 (  3268 PWs)   bands (ev):

   -14.0270 -14.0270  -2.0188  -2.0188  -0.5517  -0.5517   0.6061   0.6061
    10.1469  10.1469  13.1154  13.1154

     occupation numbers 
     1.0000   1.0000   1.0000   1.0000   1.0000   1.0000   1.0000   1.0000
    -0.0000  -0.0000  -0.0000  -0.0000

          k = 0.0000 0.2887 0.0000 (  3277 PWs)   bands (ev):

   -13.2403 -13.2001  -2.6477  -2.6362  -1.3189  -0.8028  -0.2728  -0.2684
     9.8818  11.9174  12.0367  12.7838

     occupation numbers 
     1.0000   1.0000   1.0000   1.0000   1.0000   1.0000   1.0000   1.0000
    -0.0000  -0.0000  -0.0000  -0.0000

          k = 0.0000 0.2887 0.0371 (  3273 PWs)   bands (ev):

   -13.2388 -13.2017  -2.6473  -2.6367  -1.3008  -0.8242  -0.2726  -0.2685
     9.9677  11.9173  12.0262  12.7668

     occupation numbers 
     1.0000   1.0000   1.0000   1.0000   1.0000   1.0000   1.0000   1.0000
    -0.0000  -0.0000  -0.0000  -0.0000

          k = 0.0000 0.2887 0.0741 (  3280 PWs)   bands (ev):

   -13.2345 -13.2061  -2.6460  -2.6379  -1.2487  -0.8843  -0.2721  -0.2690
    10.2188  11.8837  12.0055  12.5400

     occupation numbers 
     1.0000   1.0000   1.0000   1.0000   1.0000   1.0000   1.0000   1.0000
    -0.0000  -0.0000  -0.0000  -0.0000

          k = 0.0000 0.2887 0.1112 (  3275 PWs)   bands (ev):

   -13.2280 -13.2126  -2.6442  -2.6398  -1.1689  -0.9720  -0.2714  -0.2697
    10.6150  11.6277  12.0184  12.1905

     occupation numbers 
     1.0000   1.0000   1.0000   1.0000   1.0000   1.0000   1.0000   1.0000
    -0.0000  -0.0000  -0.0000  -0.0000

          k = 0.0000 0.2887-0.1483 (  3280 PWs)   bands (ev):

   -13.2203 -13.2203  -2.6420  -2.6420  -1.0721  -1.0721  -0.2706  -0.2706
    11.1178  11.1178  12.0678  12.0678

     occupation numbers 
     1.0000   1.0000   1.0000   1.0000   1.0000   1.0000   1.0000   1.0000
    -0.0000  -0.0000  -0.0000  -0.0000

          k = 0.0000 0.3849 0.0000 (  3257 PWs)   bands (ev):

   -12.1251 -12.0886  -4.8446  -4.8281  -1.0041  -0.9992  -0.0343   0.4335
     9.5896   9.8055  11.3482  12.4528

     occupation numbers 
     1.0000   1.0000   1.0000   1.0000   1.0000   1.0000   1.0000   1.0000
    -0.0000  -0.0000  -0.0000  -0.0000

          k = 0.0000 0.3849 0.0371 (  3259 PWs)   bands (ev):

   -12.1237 -12.0900  -4.8440  -4.8288  -1.0039  -0.9994  -0.0177   0.4143
     9.5950   9.7949  11.4345  12.4532

     occupation numbers 
     1.0000   1.0000   1.0000   1.0000   1.0000   1.0000   1.0000   1.0000
    -0.0000  -0.0000  -0.0000  -0.0000

          k = 0.0000 0.3849 0.0741 (  3262 PWs)   bands (ev):

   -12.1198 -12.0940  -4.8422  -4.8306  -1.0034  -1.0000   0.0299   0.3602
     9.6122   9.7660  11.6824  12.4526

     occupation numbers 
     1.0000   1.0000   1.0000   1.0000   1.0000   1.0000   1.0000   1.0000
    -0.0000  -0.0000  -0.0000  -0.0000

          k = 0.0000 0.3849 0.1112 (  3274 PWs)   bands (ev):

   -12.1139 -12.0999  -4.8395  -4.8332  -1.0026  -1.0008   0.1026   0.2812
     9.6419   9.7255  12.0523  12.4420

     occupation numbers 
     1.0000   1.0000   1.0000   1.0000   1.0000   1.0000   1.0000   1.0000
    -0.0000  -0.0000  -0.0000  -0.0000

          k = 0.0000 0.3849-0.1483 (  3268 PWs)   bands (ev):

   -12.1069 -12.1069  -4.8364  -4.8364  -1.0017  -1.0017   0.1906   0.1906
     9.6816   9.6816  12.3700  12.3700

     occupation numbers 
     1.0000   1.0000   1.0000   1.0000   1.0000   1.0000   1.0000   1.0000
    -0.0000  -0.0000  -0.0000  -0.0000

          k = 0.0000 0.4811 0.0000 (  3245 PWs)   bands (ev):

   -10.7338 -10.7022  -6.9378  -6.9167  -1.4758  -1.4706   1.4273   1.7949
     7.4399   7.7122  12.2024  12.2596

     occupation numbers 
     1.0000   1.0000   1.0000   1.0000   1.0000   1.0000   1.0000   1.0000
    -0.0000  -0.0000  -0.0000  -0.0000

          k = 0.0000 0.4811 0.0371 (  3243 PWs)   bands (ev):

   -10.7326 -10.7035  -6.9370  -6.9175  -1.4756  -1.4708   1.4407   1.7803
     7.4483   7.6998  12.2051  12.2581

     occupation numbers 
     1.0000   1.0000   1.0000   1.0000   1.0000   1.0000   1.0000   1.0000
    -0.0000  -0.0000  -0.0000  -0.0000

          k = 0.0000 0.4811 0.0741 (  3243 PWs)   bands (ev):

   -10.7292 -10.7069  -6.9347  -6.9198  -1.4750  -1.4714   1.4790   1.7388
     7.4731   7.6656  12.2123  12.2530

     occupation numbers 
     1.0000   1.0000   1.0000   1.0000   1.0000   1.0000   1.0000   1.0000
    -0.0000  -0.0000  -0.0000  -0.0000

          k = 0.0000 0.4811 0.1112 (  3255 PWs)   bands (ev):

   -10.7241 -10.7120  -6.9313  -6.9232  -1.4742  -1.4723   1.5370   1.6775
     7.5125   7.6168  12.2225  12.2447

     occupation numbers 
     1.0000   1.0000   1.0000   1.0000   1.0000   1.0000   1.0000   1.0000
    -0.0000  -0.0000  -0.0000  -0.0000

          k = 0.0000 0.4811-0.1483 (  3250 PWs)   bands (ev):

   -10.7181 -10.7181  -6.9273  -6.9273  -1.4732  -1.4732   1.6066   1.6066
     7.5627   7.5627  12.2339  12.2339

     occupation numbers 
     1.0000   1.0000   1.0000   1.0000   1.0000   1.0000   1.0000   1.0000
    -0.0000  -0.0000  -0.0000  -0.0000

          k = 0.0000-0.5774 0.0000 (  3238 PWs)   bands (ev):

    -9.4722  -9.4572  -8.4284  -8.4165  -1.6377  -1.6325   2.3573   2.5301
     6.3733   6.6109  12.1203  12.1863

     occupation numbers 
     1.0000   1.0000   1.0000   1.0000   1.0000   1.0000   1.0000   1.0000
    -0.0000  -0.0000  -0.0000  -0.0000

          k = 0.0000-0.5774 0.0371 (  3254 PWs)   bands (ev):

    -9.4716  -9.4578  -8.4280  -8.4170  -1.6375  -1.6327   2.3643   2.5240
     6.3793   6.5989  12.1228  12.1837

     occupation numbers 
     1.0000   1.0000   1.0000   1.0000   1.0000   1.0000   1.0000   1.0000
    -0.0000  -0.0000  -0.0000  -0.0000

          k = 0.0000-0.5774 0.0741 (  3242 PWs)   bands (ev):

    -9.4699  -9.4594  -8.4268  -8.4183  -1.6370  -1.6333   2.3841   2.5065
     6.3979   6.5660  12.1299  12.1765

     occupation numbers 
     1.0000   1.0000   1.0000   1.0000   1.0000   1.0000   1.0000   1.0000
    -0.0000  -0.0000  -0.0000  -0.0000

          k = 0.0000-0.5774 0.1112 (  3248 PWs)   bands (ev):

    -9.4675  -9.4618  -8.4249  -8.4203  -1.6361  -1.6341   2.4132   2.4796
     6.4293   6.5203  12.1405  12.1657

     occupation numbers 
     1.0000   1.0000   1.0000   1.0000   1.0000   1.0000   1.0000   1.0000
    -0.0000  -0.0000  -0.0000  -0.0000

          k = 0.0000-0.5774-0.1483 (  3252 PWs)   bands (ev):

    -9.4646  -9.4646  -8.4226  -8.4226  -1.6351  -1.6351   2.4469   2.4469
     6.4719   6.4719  12.1531  12.1531

     occupation numbers 
     1.0000   1.0000   1.0000   1.0000   1.0000   1.0000   1.0000   1.0000
    -0.0000  -0.0000  -0.0000  -0.0000

          k = 0.0833 0.1443 0.0000 (  3285 PWs)   bands (ev):

   -14.2110 -14.1674  -2.4732  -1.9240   0.0484   0.0516   0.7195   0.7216
     8.6093  12.0698  13.4269  13.4773

     occupation numbers 
     1.0000   1.0000   1.0000   1.0000   1.0000   1.0000   1.0000   1.0000
    -0.0000  -0.0000  -0.0000  -0.0000

          k = 0.0833 0.1443 0.0371 (  3283 PWs)   bands (ev):

   -14.2093 -14.1691  -2.4540  -1.9470   0.0485   0.0514   0.7196   0.7216
     8.6999  11.8262  13.4367  13.4765

     occupation numbers 
     1.0000   1.0000   1.0000   1.0000   1.0000   1.0000   1.0000   1.0000
    -0.0000  -0.0000  -0.0000  -0.0000

          k = 0.0833 0.1443 0.0741 (  3280 PWs)   bands (ev):

   -14.2046 -14.1738  -2.3988  -2.0112   0.0489   0.0511   0.7198   0.7213
     8.9659  11.2572  13.4506  13.4743

     occupation numbers 
     1.0000   1.0000   1.0000   1.0000   1.0000   1.0000   1.0000   1.0000
    -0.0000  -0.0000  -0.0000  -0.0000

          k = 0.0833 0.1443 0.1112 (  3277 PWs)   bands (ev):

   -14.1976 -14.1810  -2.3142  -2.1048   0.0494   0.0506   0.7202   0.7210
     9.3898  10.5881  13.4600  13.4709

     occupation numbers 
     1.0000   1.0000   1.0000   1.0000   1.0000   1.0000   1.0000   1.0000
    -0.0000  -0.0000  -0.0000  -0.0000

          k = 0.0833 0.1443-0.1483 (  3284 PWs)   bands (ev):

   -14.1893 -14.1893  -2.2113  -2.2113   0.0500   0.0500   0.7206   0.7206
     9.9440   9.9440  13.4663  13.4664

     occupation numbers 
     1.0000   1.0000   1.0000   1.0000   1.0000   1.0000   1.0000   1.0000
    -0.0000  -0.0000  -0.0000  -0.0000

          k = 0.0833 0.2406 0.0000 (  3283 PWs)   bands (ev):

   -13.5626 -13.5213  -1.6988  -1.6580  -1.6505  -1.1708  -0.2748  -0.2704
     9.4602  12.6989  12.8133  13.0094

     occupation numbers 
     1.0000   1.0000   1.0000   1.0000   1.0000   1.0000   1.0000   1.0000
    -0.0000  -0.0000  -0.0000  -0.0000

          k = 0.0833 0.2406 0.0371 (  3282 PWs)   bands (ev):

   -13.5611 -13.5229  -1.6803  -1.6577  -1.6507  -1.1927  -0.2746  -0.2706
     9.5485  12.5282  12.8105  12.9447

     occupation numbers 
     1.0000   1.0000   1.0000   1.0000   1.0000   1.0000   1.0000   1.0000
    -0.0000  -0.0000  -0.0000  -0.0000

          k = 0.0833 0.2406 0.0741 (  3277 PWs)   bands (ev):

   -13.5566 -13.5274  -1.6569  -1.6516  -1.6269  -1.2543  -0.2741  -0.2711
     9.8073  12.0162  12.8174  12.8992

     occupation numbers 
     1.0000   1.0000   1.0000   1.0000   1.0000   1.0000   1.0000   1.0000
    -0.0000  -0.0000  -0.0000  -0.0000

          k = 0.0833 0.2406 0.1112 (  3273 PWs)   bands (ev):

   -13.5500 -13.5342  -1.6557  -1.6528  -1.5455  -1.3441  -0.2734  -0.2718
    10.2194  11.3789  12.8324  12.8739

     occupation numbers 
     1.0000   1.0000   1.0000   1.0000   1.0000   1.0000   1.0000   1.0000
    -0.0000  -0.0000  -0.0000  -0.0000

          k = 0.0833 0.2406-0.1483 (  3274 PWs)   bands (ev):

   -13.5421 -13.5421  -1.6542  -1.6542  -1.4465  -1.4465  -0.2726  -0.2726
    10.7571  10.7571  12.8519  12.8519

     occupation numbers 
     1.0000   1.0000   1.0000   1.0000   1.0000   1.0000   1.0000   1.0000
    -0.0000  -0.0000  -0.0000  -0.0000

          k = 0.0833 0.3368 0.0000 (  3264 PWs)   bands (ev):

   -12.6008 -12.5628  -3.7254  -3.7123  -1.1590  -1.1530  -0.5709  -0.0797
    10.6301  10.7297  10.7820  13.3079

     occupation numbers 
     1.0000   1.0000   1.0000   1.0000   1.0000   1.0000   1.0000   1.0000
    -0.0000  -0.0000  -0.0000  -0.0000

          k = 0.0833 0.3368 0.0371 (  3265 PWs)   bands (ev):

   -12.5994 -12.5642  -3.7249  -3.7128  -1.1588  -1.1533  -0.5536  -0.0999
    10.6209  10.7654  10.8394  13.2965

     occupation numbers 
     1.0000   1.0000   1.0000   1.0000   1.0000   1.0000   1.0000   1.0000
    -0.0000  -0.0000  -0.0000  -0.0000

          k = 0.0833 0.3368 0.0741 (  3268 PWs)   bands (ev):

   -12.5953 -12.5684  -3.7235  -3.7142  -1.1581  -1.1539  -0.5038  -0.1569
    10.6280  10.7481  11.0957  13.1306

     occupation numbers 
     1.0000   1.0000   1.0000   1.0000   1.0000   1.0000   1.0000   1.0000
    -0.0000  -0.0000  -0.0000  -0.0000

          k = 0.0833 0.3368 0.1112 (  3266 PWs)   bands (ev):

   -12.5892 -12.5746  -3.7214  -3.7163  -1.1572  -1.1549  -0.4277  -0.2402
    10.6520  10.7187  11.4929  12.5872

     occupation numbers 
     1.0000   1.0000   1.0000   1.0000   1.0000   1.0000   1.0000   1.0000
    -0.0000  -0.0000  -0.0000  -0.0000

          k = 0.0833 0.3368-0.1483 (  3264 PWs)   bands (ev):

   -12.5819 -12.5819  -3.7188  -3.7188  -1.1560  -1.1560  -0.3354  -0.3354
    10.6846  10.6846  12.0048  12.0048

     occupation numbers 
     1.0000   1.0000   1.0000   1.0000   1.0000   1.0000   1.0000   1.0000
    -0.0000  -0.0000  -0.0000  -0.0000

          k = 0.0833 0.4330 0.0000 (  3262 PWs)   bands (ev):

   -11.3444 -11.3106  -5.8417  -5.8233  -1.7924  -1.7857   0.8325   1.2577
     8.3972   8.6285  12.3875  13.0266

     occupation numbers 
     1.0000   1.0000   1.0000   1.0000   1.0000   1.0000   1.0000   1.0000
    -0.0000  -0.0000  -0.0000  -0.0000

          k = 0.0833 0.4330 0.0371 (  3253 PWs)   bands (ev):

   -11.3431 -11.3119  -5.8410  -5.8240  -1.7922  -1.7859   0.8477   1.2404
     8.4045   8.6184  12.4641  13.0284

     occupation numbers 
     1.0000   1.0000   1.0000   1.0000   1.0000   1.0000   1.0000   1.0000
    -0.0000  -0.0000  -0.0000  -0.0000

          k = 0.0833 0.4330 0.0741 (  3254 PWs)   bands (ev):

   -11.3395 -11.3156  -5.8390  -5.8260  -1.7915  -1.7867   0.8914   1.1917
     8.4262   8.5901  12.6780  13.0323

     occupation numbers 
     1.0000   1.0000   1.0000   1.0000   1.0000   1.0000   1.0000   1.0000
    -0.0000  -0.0000  -0.0000  -0.0000

          k = 0.0833 0.4330 0.1112 (  3256 PWs)   bands (ev):

   -11.3340 -11.3211  -5.8361  -5.8290  -1.7904  -1.7878   0.9578   1.1202
     8.4605   8.5493  12.9296  13.0334

     occupation numbers 
     1.0000   1.0000   1.0000   1.0000   1.0000   1.0000   1.0000   1.0000
    -0.0000  -0.0000  -0.0000  -0.0000

          k = 0.0833 0.4330-0.1483 (  3256 PWs)   bands (ev):

   -11.3276 -11.3276  -5.8325  -5.8325  -1.7891  -1.7891   1.0380   1.0380
     8.5035   8.5035  13.0182  13.0182

     occupation numbers 
     1.0000   1.0000   1.0000   1.0000   1.0000   1.0000   1.0000   1.0000
    -0.0000  -0.0000  -0.0000  -0.0000

          k = 0.0833 0.5292 0.0000 (  3243 PWs)   bands (ev):

    -9.8700  -9.8429  -7.7746  -7.7533  -2.1201  -2.1130   2.2081   2.4740
     6.6415   6.8804  12.8502  12.9251

     occupation numbers 
     1.0000   1.0000   1.0000   1.0000   1.0000   1.0000   1.0000   1.0000
    -0.0000  -0.0000  -0.0000  -0.0000

          k = 0.0833 0.5292 0.0371 (  3245 PWs)   bands (ev):

    -9.8689  -9.8439  -7.7738  -7.7541  -2.1199  -2.1133   2.2182   2.4639
     6.6484   6.8692  12.8531  12.9223

     occupation numbers 
     1.0000   1.0000   1.0000   1.0000   1.0000   1.0000   1.0000   1.0000
    -0.0000  -0.0000  -0.0000  -0.0000

          k = 0.0833 0.5292 0.0741 (  3244 PWs)   bands (ev):

    -9.8660  -9.8469  -7.7715  -7.7564  -2.1191  -2.1141   2.2469   2.4350
     6.6689   6.8380  12.8612  12.9142

     occupation numbers 
     1.0000   1.0000   1.0000   1.0000   1.0000   1.0000   1.0000   1.0000
    -0.0000  -0.0000  -0.0000  -0.0000

          k = 0.0833 0.5292 0.1112 (  3251 PWs)   bands (ev):

    -9.8616  -9.8513  -7.7681  -7.7599  -2.1179  -2.1152   2.2900   2.3918
     6.7024   6.7940  12.8734  12.9021

     occupation numbers 
     1.0000   1.0000   1.0000   1.0000   1.0000   1.0000   1.0000   1.0000
    -0.0000  -0.0000  -0.0000  -0.0000

          k = 0.0833 0.5292-0.1483 (  3246 PWs)   bands (ev):

    -9.8565  -9.8565  -7.7640  -7.7640  -2.1166  -2.1166   2.3409   2.3409
     6.7460   6.7460  12.8877  12.8877

     occupation numbers 
     1.0000   1.0000   1.0000   1.0000   1.0000   1.0000   1.0000   1.0000
    -0.0000  -0.0000  -0.0000  -0.0000

          k = 0.1667 0.2887 0.0000 (  3263 PWs)   bands (ev):

   -12.7605 -12.7219  -2.9842  -2.9781  -1.6298  -1.6253  -0.7524  -0.2536
    10.5220  11.0949  11.1953  13.6816

     occupation numbers 
     1.0000   1.0000   1.0000   1.0000   1.0000   1.0000   1.0000   1.0000
    -0.0000  -0.0000  -0.0000  -0.0000

          k = 0.1667 0.2887 0.0371 (  3257 PWs)   bands (ev):

   -12.7590 -12.7234  -2.9839  -2.9783  -1.6296  -1.6255  -0.7348  -0.2742
    10.6067  11.0987  11.1915  13.4689

     occupation numbers 
     1.0000   1.0000   1.0000   1.0000   1.0000   1.0000   1.0000   1.0000
    -0.0000  -0.0000  -0.0000  -0.0000

          k = 0.1667 0.2887 0.0741 (  3262 PWs)   bands (ev):

   -12.7549 -12.7276  -2.9833  -2.9790  -1.6291  -1.6260  -0.6843  -0.3322
    10.8548  11.1094  11.1807  12.9634

     occupation numbers 
     1.0000   1.0000   1.0000   1.0000   1.0000   1.0000   1.0000   1.0000
    -0.0000  -0.0000  -0.0000  -0.0000

          k = 0.1667 0.2887 0.1112 (  3270 PWs)   bands (ev):

   -12.7486 -12.7339  -2.9823  -2.9800  -1.6284  -1.6267  -0.6071  -0.4168
    11.1256  11.1628  11.2513  12.3569

     occupation numbers 
     1.0000   1.0000   1.0000   1.0000   1.0000   1.0000   1.0000   1.0000
    -0.0000  -0.0000  -0.0000  -0.0000

          k = 0.1667 0.2887-0.1483 (  3270 PWs)   bands (ev):

   -12.7413 -12.7413  -2.9811  -2.9811  -1.6276  -1.6276  -0.5135  -0.5135
    11.1447  11.1447  11.7643  11.7643

     occupation numbers 
     1.0000   1.0000   1.0000   1.0000   1.0000   1.0000   1.0000   1.0000
    -0.0000  -0.0000  -0.0000  -0.0000

          k = 0.1667 0.3849 0.0000 (  3263 PWs)   bands (ev):

   -11.6561 -11.6212  -4.7077  -4.6952  -2.6838  -2.6757   0.5172   0.9677
     9.1389   9.2824  11.9937  14.9238

     occupation numbers 
     1.0000   1.0000   1.0000   1.0000   1.0000   1.0000   1.0000   1.0000
    -0.0000  -0.0000  -0.0000  -0.0000

          k = 0.1667 0.3849 0.0371 (  3252 PWs)   bands (ev):

   -11.6548 -11.6225  -4.7073  -4.6956  -2.6835  -2.6760   0.5332   0.9492
     9.1441   9.2767  12.0719  14.5750

     occupation numbers 
     1.0000   1.0000   1.0000   1.0000   1.0000   1.0000   1.0000   1.0000
    -0.0000  -0.0000  -0.0000  -0.0000

          k = 0.1667 0.3849 0.0741 (  3256 PWs)   bands (ev):

   -11.6510 -11.6263  -4.7059  -4.6970  -2.6827  -2.6769   0.5791   0.8973
     9.1588   9.2605  12.3002  14.1624

     occupation numbers 
     1.0000   1.0000   1.0000   1.0000   1.0000   1.0000   1.0000   1.0000
    -0.0000  -0.0000  -0.0000  -0.0000

          k = 0.1667 0.3849 0.1112 (  3248 PWs)   bands (ev):

   -11.6454 -11.6320  -4.7039  -4.6990  -2.6813  -2.6782   0.6492   0.8213
     9.1814   9.2365  12.6608  13.6463

     occupation numbers 
     1.0000   1.0000   1.0000   1.0000   1.0000   1.0000   1.0000   1.0000
    -0.0000  -0.0000  -0.0000  -0.0000

          k = 0.1667 0.3849-0.1483 (  3254 PWs)   bands (ev):

   -11.6387 -11.6387  -4.7015  -4.7015  -2.6798  -2.6798   0.7340   0.7340
     9.2087   9.2087  13.1240  13.1240

     occupation numbers 
     1.0000   1.0000   1.0000   1.0000   1.0000   1.0000   1.0000   1.0000
    -0.0000  -0.0000  -0.0000  -0.0000

          k = 0.1667 0.4811 0.0000 (  3243 PWs)   bands (ev):

   -10.2847 -10.2547  -6.6121  -6.5932  -3.2598  -3.2494   1.9794   2.3379
     7.2159   7.4097  13.8405  14.7148

     occupation numbers 
     1.0000   1.0000   1.0000   1.0000   1.0000   1.0000   1.0000   1.0000
    -0.0000  -0.0000  -0.0000  -0.0000

          k = 0.1667 0.4811 0.0371 (  3243 PWs)   bands (ev):

   -10.2836 -10.2559  -6.6113  -6.5939  -3.2594  -3.2498   1.9924   2.3236
     7.2224   7.4015  13.9036  14.7170

     occupation numbers 
     1.0000   1.0000   1.0000   1.0000   1.0000   1.0000   1.0000   1.0000
    -0.0000  -0.0000  -0.0000  -0.0000

          k = 0.1667 0.4811 0.0741 (  3244 PWs)   bands (ev):

   -10.2804 -10.2591  -6.6093  -6.5960  -3.2583  -3.2509   2.0297   2.2831
     7.2414   7.3787  14.0846  14.7217

     occupation numbers 
     1.0000   1.0000   1.0000   1.0000   1.0000   1.0000   1.0000   1.0000
    -0.0000  -0.0000  -0.0000  -0.0000

          k = 0.1667 0.4811 0.1112 (  3240 PWs)   bands (ev):

   -10.2755 -10.2640  -6.6063  -6.5990  -3.2566  -3.2526   2.0863   2.2234
     7.2709   7.3453  14.3546  14.7161

     occupation numbers 
     1.0000   1.0000   1.0000   1.0000   1.0000   1.0000   1.0000   1.0000
    -0.0000  -0.0000  -0.0000  -0.0000

          k = 0.1667 0.4811-0.1483 (  3242 PWs)   bands (ev):

   -10.2698 -10.2698  -6.6026  -6.6026  -3.2546  -3.2546   2.1542   2.1542
     7.3073   7.3073  14.6242  14.6242

     occupation numbers 
     1.0000   1.0000   1.0000   1.0000   1.0000   1.0000   1.0000   1.0000
    -0.0000  -0.0000  -0.0000  -0.0000

          k = 0.1667 0.5774 0.0000 (  3234 PWs)   bands (ev):

    -9.0521  -9.0379  -8.0322  -8.0216  -3.4446  -3.4337   2.9545   3.1236
     6.1931   6.3238  14.6159  14.7549

     occupation numbers 
     1.0000   1.0000   1.0000   1.0000   1.0000   1.0000   1.0000   1.0000
    -0.0000  -0.0000  -0.0000  -0.0000

          k = 0.1667 0.5774 0.0371 (  3234 PWs)   bands (ev):

    -9.0515  -9.0384  -8.0318  -8.0221  -3.4442  -3.4341   2.9614   3.1177
     6.1960   6.3169  14.6206  14.7487

     occupation numbers 
     1.0000   1.0000   1.0000   1.0000   1.0000   1.0000   1.0000   1.0000
    -0.0000  -0.0000  -0.0000  -0.0000

          k = 0.1667 0.5774 0.0741 (  3244 PWs)   bands (ev):

    -9.0500  -9.0399  -8.0307  -8.0233  -3.4430  -3.4353   2.9809   3.1007
     6.2054   6.2981  14.6339  14.7315

     occupation numbers 
     1.0000   1.0000   1.0000   1.0000   1.0000   1.0000   1.0000   1.0000
    -0.0000  -0.0000  -0.0000  -0.0000

          k = 0.1667 0.5774 0.1112 (  3238 PWs)   bands (ev):

    -9.0476  -9.0422  -8.0291  -8.0250  -3.4413  -3.4371   3.0096   3.0745
     6.2219   6.2722  14.6544  14.7069

     occupation numbers 
     1.0000   1.0000   1.0000   1.0000   1.0000   1.0000   1.0000   1.0000
    -0.0000  -0.0000  -0.0000  -0.0000

          k = 0.1667 0.5774-0.1483 (  3236 PWs)   bands (ev):

    -9.0449  -9.0449  -8.0271  -8.0271  -3.4392  -3.4392   3.0426   3.0426
     6.2451   6.2451  14.6797  14.6797

     occupation numbers 
     1.0000   1.0000   1.0000   1.0000   1.0000   1.0000   1.0000   1.0000
    -0.0000  -0.0000  -0.0000  -0.0000

          k = 0.2500 0.4330 0.0000 (  3260 PWs)   bands (ev):

   -10.4319 -10.4012  -5.7399  -5.7307  -4.1575  -4.1505   1.8827   2.2700
     7.5354   7.6717  13.6409  15.3842

     occupation numbers 
     1.0000   1.0000   1.0000   1.0000   1.0000   1.0000   1.0000   1.0000
    -0.0000  -0.0000  -0.0000  -0.0000

          k = 0.2500 0.4330 0.0371 (  3246 PWs)   bands (ev):

   -10.4307 -10.4023  -5.7395  -5.7310  -4.1573  -4.1508   1.8966   2.2544
     7.5406   7.6665  13.7002  15.3018

     occupation numbers 
     1.0000   1.0000   1.0000   1.0000   1.0000   1.0000   1.0000   1.0000
    -0.0000  -0.0000  -0.0000  -0.0000

          k = 0.2500 0.4330 0.0741 (  3237 PWs)   bands (ev):

   -10.4274 -10.4057  -5.7385  -5.7320  -4.1565  -4.1516   1.9366   2.2102
     7.5553   7.6516  13.8706  15.0827

     occupation numbers 
     1.0000   1.0000   1.0000   1.0000   1.0000   1.0000   1.0000   1.0000
    -0.0000  -0.0000  -0.0000  -0.0000

          k = 0.2500 0.4330 0.1112 (  3239 PWs)   bands (ev):

   -10.4224 -10.4107  -5.7370  -5.7335  -4.1554  -4.1527   1.9973   2.1453
     7.5773   7.6294  14.1310  14.7811

     occupation numbers 
     1.0000   1.0000   1.0000   1.0000   1.0000   1.0000   1.0000   1.0000
    -0.0000  -0.0000  -0.0000  -0.0000

          k = 0.2500 0.4330-0.1483 (  3240 PWs)   bands (ev):

   -10.4166 -10.4166  -5.7353  -5.7353  -4.1541  -4.1541   2.0705   2.0705
     7.6033   7.6033  14.4484  14.4484

     occupation numbers 
     1.0000   1.0000   1.0000   1.0000   1.0000   1.0000   1.0000   1.0000
    -0.0000  -0.0000  -0.0000  -0.0000

          k = 0.2500 0.5292 0.0000 (  3233 PWs)   bands (ev):

    -9.0144  -8.9901  -7.1565  -7.1408  -4.8650  -4.8533   3.3184   3.5826
     6.0292   6.1595  15.5758  15.6359

     occupation numbers 
     1.0000   1.0000   1.0000   1.0000   1.0000   1.0000   1.0000   1.0001
    -0.0001  -0.0000  -0.0000  -0.0000

          k = 0.2500 0.5292 0.0371 (  3241 PWs)   bands (ev):

    -9.0134  -8.9911  -7.1559  -7.1414  -4.8646  -4.8537   3.3283   3.5724
     6.0335   6.1539  15.5079  15.5972

     occupation numbers 
     1.0000   1.0000   1.0000   1.0000   1.0000   1.0000   1.0000   1.0001
    -0.0001  -0.0000  -0.0000  -0.0000

          k = 0.2500 0.5292 0.0741 (  3234 PWs)   bands (ev):

    -9.0108  -8.9937  -7.1542  -7.1431  -4.8633  -4.8550   3.3567   3.5436
     6.0462   6.1385  15.4050  15.4973

     occupation numbers 
     1.0000   1.0000   1.0000   1.0000   1.0000   1.0000   1.0000   1.0001
    -0.0001  -0.0000  -0.0000  -0.0000

          k = 0.2500 0.5292 0.1112 (  3241 PWs)   bands (ev):

    -9.0069  -8.9976  -7.1517  -7.1457  -4.8614  -4.8569   3.3994   3.5005
     6.0660   6.1159  15.3425  15.3980

     occupation numbers 
     1.0000   1.0000   1.0000   1.0000   1.0000   1.0000   1.0000   1.0000
    -0.0001  -0.0000  -0.0000  -0.0000

          k = 0.2500 0.5292-0.1483 (  3254 PWs)   bands (ev):

    -9.0023  -9.0023  -7.1487  -7.1487  -4.8592  -4.8592   3.4499   3.4499
     6.0904   6.0904  15.3405  15.3405

     occupation numbers 
     1.0000   1.0000   1.0000   1.0000   1.0000   1.0000   1.0000   1.0000
    -0.0000  -0.0000  -0.0000  -0.0000

          k = 0.3333 0.5774 0.0000 (  3252 PWs)   bands (ev):

    -7.8047  -7.7923  -7.7922  -7.7804  -5.7457  -5.7457   4.6438   4.7980
     4.7980   4.9604  15.4974  15.4981

     occupation numbers 
     1.0000   1.0000   1.0000   1.0000   1.0000   1.0000   0.7981   0.5030
     0.5028   0.1932  -0.0000  -0.0000

          k = 0.3333 0.5774 0.0371 (  3261 PWs)   bands (ev):

    -7.8038  -7.7923  -7.7922  -7.7814  -5.7457  -5.7457   4.6553   4.7982
     4.7983   4.9478  15.4426  15.4432

     occupation numbers 
     1.0000   1.0000   1.0000   1.0000   1.0000   1.0000   0.7792   0.5025
     0.5023   0.2138  -0.0000  -0.0000

          k = 0.3333 0.5774 0.0741 (  3255 PWs)   bands (ev):

    -7.8012  -7.7923  -7.7922  -7.7840  -5.7457  -5.7457   4.6882   4.7989
     4.7990   4.9120  15.3291  15.3295

     occupation numbers 
     1.0000   1.0000   1.0000   1.0000   1.0000   1.0000   0.7214   0.5011
     0.5010   0.2762  -0.0000  -0.0000

          k = 0.3333 0.5774 0.1112 (  3246 PWs)   bands (ev):

    -7.7973  -7.7923  -7.7921  -7.7878  -5.7458  -5.7457   4.7381   4.7995
     4.7996   4.8592  15.2336  15.2338

     occupation numbers 
     1.0000   1.0000   1.0000   1.0000   1.0000   1.0000   0.6256   0.4998
     0.4996   0.3776  -0.0000  -0.0000

          k = 0.3333 0.5774-0.1483 (  3234 PWs)   bands (ev):

    -7.7931  -7.7931  -7.7916  -7.7916  -5.7458  -5.7458   4.7976   4.7976
     4.8002   4.8002  15.1979  15.1979

     occupation numbers 
     1.0000   1.0000   1.0000   1.0000   1.0000   1.0000   0.5037   0.5037
     0.4983   0.4983  -0.0000  -0.0000

          k =-0.0833-0.0481 0.0000 (  3275 PWs)   bands (ev):

   -14.5370 -14.4923  -2.8657  -2.3067   1.0810   1.0841   1.3912   1.3937
     8.1836  11.6852  13.1453  13.1702

     occupation numbers 
     1.0000   1.0000   1.0000   1.0000   1.0000   1.0000   1.0000   1.0000
    -0.0000  -0.0000  -0.0000  -0.0000

          k =-0.0833-0.0481-0.0371 (  3280 PWs)   bands (ev):

   -14.5353 -14.4940  -2.8463  -2.3301   1.0811   1.0840   1.3913   1.3936
     8.2753  11.4391  13.1496  13.1698

     occupation numbers 
     1.0000   1.0000   1.0000   1.0000   1.0000   1.0000   1.0000   1.0000
    -0.0000  -0.0000  -0.0000  -0.0000

          k =-0.0833-0.0481-0.0741 (  3280 PWs)   bands (ev):

   -14.5305 -14.4989  -2.7901  -2.3956   1.0815   1.0837   1.3916   1.3933
     8.5443  10.8628  13.1560  13.1685

     occupation numbers 
     1.0000   1.0000   1.0000   1.0000   1.0000   1.0000   1.0000   1.0000
    -0.0000  -0.0000  -0.0000  -0.0000

          k =-0.0833-0.0481-0.1112 (  3271 PWs)   bands (ev):

   -14.5233 -14.5062  -2.7041  -2.4909   1.0820   1.0832   1.3920   1.3929
     8.9729  10.1853  13.1606  13.1666

     occupation numbers 
     1.0000   1.0000   1.0000   1.0000   1.0000   1.0000   1.0000   1.0000
    -0.0000  -0.0000  -0.0000  -0.0000

          k =-0.0833-0.0481 0.1483 (  3270 PWs)   bands (ev):

   -14.5148 -14.5148  -2.5994  -2.5994   1.0826   1.0826   1.3924   1.3924
     9.5334   9.5334  13.1640  13.1640

     occupation numbers 
     1.0000   1.0000   1.0000   1.0000   1.0000   1.0000   1.0000   1.0000
    -0.0000  -0.0000  -0.0000  -0.0000

          k =-0.1667-0.0962 0.0000 (  3295 PWs)   bands (ev):

   -14.0484 -14.0054  -2.2784  -1.7344  -0.5530  -0.5462   0.6019   0.6056
     8.8214  12.2525  13.0712  13.1256

     occupation numbers 
     1.0000   1.0000   1.0000   1.0000   1.0000   1.0000   1.0000   1.0000
    -0.0000  -0.0000  -0.0000  -0.0000

          k =-0.1667-0.0962-0.0371 (  3289 PWs)   bands (ev):

   -14.0467 -14.0070  -2.2594  -1.7570  -0.5527  -0.5464   0.6020   0.6054
     8.9115  12.0108  13.0827  13.1250

     occupation numbers 
     1.0000   1.0000   1.0000   1.0000   1.0000   1.0000   1.0000   1.0000
    -0.0000  -0.0000  -0.0000  -0.0000

          k =-0.1667-0.0962-0.0741 (  3280 PWs)   bands (ev):

   -14.0421 -14.0117  -2.2046  -1.8207  -0.5520  -0.5472   0.6024   0.6051
     9.1758  11.4480  13.0969  13.1228

     occupation numbers 
     1.0000   1.0000   1.0000   1.0000   1.0000   1.0000   1.0000   1.0000
    -0.0000  -0.0000  -0.0000  -0.0000

          k =-0.1667-0.0962-0.1112 (  3281 PWs)   bands (ev):

   -14.0352 -14.0187  -2.1208  -1.9133  -0.5509  -0.5483   0.6030   0.6045
     9.5968  10.7856  13.1063  13.1187

     occupation numbers 
     1.0000   1.0000   1.0000   1.0000   1.0000   1.0000   1.0000   1.0000
    -0.0000  -0.0000  -0.0000  -0.0000

          k =-0.1667-0.0962 0.1483 (  3268 PWs)   bands (ev):

   -14.0270 -14.0270  -2.0188  -2.0188  -0.5496  -0.5496   0.6038   0.6038
    10.1469  10.1469  13.1132  13.1132

     occupation numbers 
     1.0000   1.0000   1.0000   1.0000   1.0000   1.0000   1.0000   1.0000
    -0.0000  -0.0000  -0.0000  -0.0000

          k =-0.2500-0.1443 0.0000 (  3277 PWs)   bands (ev):

   -13.2403 -13.2001  -2.6462  -2.6347  -1.3191  -0.8030  -0.2747  -0.2703
     9.8818  11.9180  12.0373  12.7831

     occupation numbers 
     1.0000   1.0000   1.0000   1.0000   1.0000   1.0000   1.0000   1.0000
    -0.0000  -0.0000  -0.0000  -0.0000

          k =-0.2500-0.1443-0.0371 (  3273 PWs)   bands (ev):

   -13.2388 -13.2016  -2.6457  -2.6351  -1.3010  -0.8244  -0.2746  -0.2705
     9.9677  11.9179  12.0269  12.7655

     occupation numbers 
     1.0000   1.0000   1.0000   1.0000   1.0000   1.0000   1.0000   1.0000
    -0.0000  -0.0000  -0.0000  -0.0000

          k =-0.2500-0.1443-0.0741 (  3280 PWs)   bands (ev):

   -13.2345 -13.2060  -2.6445  -2.6364  -1.2488  -0.8845  -0.2741  -0.2709
[...]
     9.1602   9.2618  12.3002  14.1619

     occupation numbers 
     1.0000   1.0000   1.0000   1.0000   1.0000   1.0000   1.0000   1.0000
    -0.0000  -0.0000  -0.0000  -0.0000

          k =-0.2500-0.3368-0.1112 (  3248 PWs)   bands (ev):

   -11.6454 -11.6320  -4.7031  -4.6983  -2.6823  -2.6791   0.6491   0.8211
     9.1819   9.2370  12.6608  13.6463

     occupation numbers 
     1.0000   1.0000   1.0000   1.0000   1.0000   1.0000   1.0000   1.0000
    -0.0000  -0.0000  -0.0000  -0.0000

          k = 0.4167-0.0481-0.1112 (  3248 PWs)   bands (ev):

   -11.6453 -11.6320  -4.7022  -4.6974  -2.6833  -2.6801   0.6488   0.8208
     9.1828   9.2379  12.6607  13.6460

     occupation numbers 
     1.0000   1.0000   1.0000   1.0000   1.0000   1.0000   1.0000   1.0000
    -0.0000  -0.0000  -0.0000  -0.0000

          k =-0.2500-0.3368 0.1483 (  3254 PWs)   bands (ev):

   -11.6387 -11.6387  -4.7007  -4.7007  -2.6807  -2.6807   0.7339   0.7339
     9.2091   9.2091  13.1240  13.1240

     occupation numbers 
     1.0000   1.0000   1.0000   1.0000   1.0000   1.0000   1.0000   1.0000
    -0.0000  -0.0000  -0.0000  -0.0000

          k = 0.4167-0.0481 0.1483 (  3254 PWs)   bands (ev):

   -11.6387 -11.6387  -4.6998  -4.6998  -2.6817  -2.6817   0.7336   0.7336
     9.2100   9.2100  13.1238  13.1238

     occupation numbers 
     1.0000   1.0000   1.0000   1.0000   1.0000   1.0000   1.0000   1.0000
    -0.0000  -0.0000  -0.0000  -0.0000

          k =-0.3333-0.3849 0.0000 (  3243 PWs)   bands (ev):

   -10.2848 -10.2548  -6.6111  -6.5922  -3.2610  -3.2506   1.9788   2.3373
     7.2171   7.4108  13.8406  14.7140

     occupation numbers 
     1.0000   1.0000   1.0000   1.0000   1.0000   1.0000   1.0000   1.0000
    -0.0000  -0.0000  -0.0000  -0.0000

          k = 0.5000-0.0962 0.0000 (  3243 PWs)   bands (ev):

   -10.2847 -10.2547  -6.6108  -6.5919  -3.2613  -3.2509   1.9785   2.3370
     7.2177   7.4115  13.8405  14.7139

     occupation numbers 
     1.0000   1.0000   1.0000   1.0000   1.0000   1.0000   1.0000   1.0000
    -0.0000  -0.0000  -0.0000  -0.0000

          k =-0.3333-0.3849-0.0371 (  3243 PWs)   bands (ev):

   -10.2836 -10.2559  -6.6104  -6.5929  -3.2606  -3.2509   1.9918   2.3230
     7.2236   7.4027  13.9038  14.7164

     occupation numbers 
     1.0000   1.0000   1.0000   1.0000   1.0000   1.0000   1.0000   1.0000
    -0.0000  -0.0000  -0.0000  -0.0000

          k = 0.5000-0.0962-0.0371 (  3243 PWs)   bands (ev):

   -10.2836 -10.2559  -6.6101  -6.5927  -3.2609  -3.2513   1.9915   2.3226
     7.2243   7.4033  13.9036  14.7162

     occupation numbers 
     1.0000   1.0000   1.0000   1.0000   1.0000   1.0000   1.0000   1.0000
    -0.0000  -0.0000  -0.0000  -0.0000

          k =-0.3333-0.3849-0.0741 (  3244 PWs)   bands (ev):

   -10.2804 -10.2592  -6.6083  -6.5950  -3.2595  -3.2521   2.0291   2.2825
     7.2426   7.3798  14.0847  14.7209

     occupation numbers 
     1.0000   1.0000   1.0000   1.0000   1.0000   1.0000   1.0000   1.0000
    -0.0000  -0.0000  -0.0000  -0.0000

          k = 0.5000-0.0962-0.0741 (  3244 PWs)   bands (ev):

   -10.2804 -10.2591  -6.6081  -6.5947  -3.2598  -3.2524   2.0288   2.2822
     7.2432   7.3805  14.0845  14.7205

     occupation numbers 
     1.0000   1.0000   1.0000   1.0000   1.0000   1.0000   1.0000   1.0000
    -0.0000  -0.0000  -0.0000  -0.0000

          k =-0.3333-0.3849-0.1112 (  3240 PWs)   bands (ev):

   -10.2756 -10.2641  -6.6053  -6.5980  -3.2578  -3.2538   2.0857   2.2228
     7.2721   7.3464  14.3546  14.7155

     occupation numbers 
     1.0000   1.0000   1.0000   1.0000   1.0000   1.0000   1.0000   1.0000
    -0.0000  -0.0000  -0.0000  -0.0000

          k = 0.5000-0.0962-0.1112 (  3240 PWs)   bands (ev):

   -10.2755 -10.2640  -6.6050  -6.5978  -3.2581  -3.2541   2.0854   2.2225
     7.2728   7.3471  14.3542  14.7148

     occupation numbers 
     1.0000   1.0000   1.0000   1.0000   1.0000   1.0000   1.0000   1.0000
    -0.0000  -0.0000  -0.0000  -0.0000

          k =-0.3333-0.3849 0.1483 (  3242 PWs)   bands (ev):

   -10.2698 -10.2698  -6.6017  -6.6017  -3.2558  -3.2558   2.1536   2.1536
     7.3085   7.3085  14.6243  14.6243

     occupation numbers 
     1.0000   1.0000   1.0000   1.0000   1.0000   1.0000   1.0000   1.0000
    -0.0000  -0.0000  -0.0000  -0.0000

          k = 0.5000-0.0962 0.1483 (  3242 PWs)   bands (ev):

   -10.2698 -10.2698  -6.6014  -6.6014  -3.2561  -3.2561   2.1533   2.1533
     7.3091   7.3091  14.6234  14.6234

     occupation numbers 
     1.0000   1.0000   1.0000   1.0000   1.0000   1.0000   1.0000   1.0000
    -0.0000  -0.0000  -0.0000  -0.0000

          k =-0.4167-0.4330 0.0000 (  3234 PWs)   bands (ev):

    -9.0530  -9.0388  -8.0303  -8.0197  -3.4459  -3.4349   2.9530   3.1222
     6.1953   6.3261  14.6151  14.7542

     occupation numbers 
     1.0000   1.0000   1.0000   1.0000   1.0000   1.0000   1.0000   1.0000
    -0.0000  -0.0000  -0.0000  -0.0000

          k =-0.4167-0.4330-0.0371 (  3234 PWs)   bands (ev):

    -9.0524  -9.0393  -8.0299  -8.0202  -3.4455  -3.4354   2.9599   3.1163
     6.1982   6.3192  14.6198  14.7480

     occupation numbers 
     1.0000   1.0000   1.0000   1.0000   1.0000   1.0000   1.0000   1.0000
    -0.0000  -0.0000  -0.0000  -0.0000

          k =-0.4167-0.4330-0.0741 (  3244 PWs)   bands (ev):

    -9.0509  -9.0408  -8.0288  -8.0214  -3.4443  -3.4365   2.9794   3.0992
     6.2076   6.3004  14.6332  14.7308

     occupation numbers 
     1.0000   1.0000   1.0000   1.0000   1.0000   1.0000   1.0000   1.0000
    -0.0000  -0.0000  -0.0000  -0.0000

          k =-0.4167-0.4330-0.1112 (  3238 PWs)   bands (ev):

    -9.0485  -9.0431  -8.0272  -8.0231  -3.4425  -3.4383   3.0081   3.0730
     6.2241   6.2745  14.6536  14.7061

     occupation numbers 
     1.0000   1.0000   1.0000   1.0000   1.0000   1.0000   1.0000   1.0000
    -0.0000  -0.0000  -0.0000  -0.0000

          k =-0.4167-0.4330 0.1483 (  3236 PWs)   bands (ev):

    -9.0458  -9.0458  -8.0252  -8.0252  -3.4404  -3.4404   3.0411   3.0411
     6.2474   6.2474  14.6790  14.6790

     occupation numbers 
     1.0000   1.0000   1.0000   1.0000   1.0000   1.0000   1.0000   1.0000
    -0.0000  -0.0000  -0.0000  -0.0000

          k = 0.5000-0.0000 0.0000 (  3260 PWs)   bands (ev):

   -10.4318 -10.4011  -5.7384  -5.7292  -4.1591  -4.1521   1.8821   2.2694
     7.5367   7.6730  13.6409  15.3832

     occupation numbers 
     1.0000   1.0000   1.0000   1.0000   1.0000   1.0000   1.0000   1.0000
    -0.0000  -0.0000  -0.0000  -0.0000

          k = 0.5000-0.0000-0.0371 (  3246 PWs)   bands (ev):

   -10.4307 -10.4023  -5.7381  -5.7296  -4.1589  -4.1524   1.8961   2.2538
     7.5419   7.6678  13.7001  15.3009

     occupation numbers 
     1.0000   1.0000   1.0000   1.0000   1.0000   1.0000   1.0000   1.0000
    -0.0000  -0.0000  -0.0000  -0.0000

          k = 0.5000-0.0000-0.0741 (  3237 PWs)   bands (ev):

   -10.4274 -10.4056  -5.7371  -5.7306  -4.1581  -4.1532   1.9360   2.2096
     7.5566   7.6529  13.8705  15.0819

     occupation numbers 
     1.0000   1.0000   1.0000   1.0000   1.0000   1.0000   1.0000   1.0000
    -0.0000  -0.0000  -0.0000  -0.0000

          k = 0.5000-0.0000-0.1112 (  3239 PWs)   bands (ev):

   -10.4224 -10.4107  -5.7356  -5.7321  -4.1570  -4.1543   1.9967   2.1447
     7.5786   7.6307  14.1308  14.7805

     occupation numbers 
     1.0000   1.0000   1.0000   1.0000   1.0000   1.0000   1.0000   1.0000
    -0.0000  -0.0000  -0.0000  -0.0000

          k = 0.5000-0.0000 0.1483 (  3240 PWs)   bands (ev):

   -10.4165 -10.4165  -5.7338  -5.7338  -4.1557  -4.1557   2.0699   2.0699
     7.6046   7.6046  14.4480  14.4480

     occupation numbers 
     1.0000   1.0000   1.0000   1.0000   1.0000   1.0000   1.0000   1.0000
    -0.0000  -0.0000  -0.0000  -0.0000

          k =-0.3333-0.4811 0.0000 (  3233 PWs)   bands (ev):

    -9.0146  -8.9904  -7.1555  -7.1398  -4.8659  -4.8542   3.3177   3.5818
     6.0303   6.1604  15.5758  15.6356

     occupation numbers 
     1.0000   1.0000   1.0000   1.0000   1.0000   1.0000   1.0000   1.0001
    -0.0001  -0.0000  -0.0000  -0.0000

          k = 0.5833-0.0481 0.0000 (  3233 PWs)   bands (ev):

    -9.0147  -8.9905  -7.1550  -7.1392  -4.8663  -4.8546   3.3172   3.5812
     6.0311   6.1612  15.5758  15.6350

     occupation numbers 
     1.0000   1.0000   1.0000   1.0000   1.0000   1.0000   1.0000   1.0001
    -0.0001  -0.0000  -0.0000  -0.0000

          k =-0.3333-0.4811-0.0371 (  3241 PWs)   bands (ev):

    -9.0137  -8.9913  -7.1549  -7.1404  -4.8654  -4.8546   3.3276   3.5717
     6.0347   6.1549  15.5079  15.5971

     occupation numbers 
     1.0000   1.0000   1.0000   1.0000   1.0000   1.0000   1.0000   1.0001
    -0.0001  -0.0000  -0.0000  -0.0000

          k = 0.5833-0.0481-0.0371 (  3241 PWs)   bands (ev):

    -9.0138  -8.9914  -7.1544  -7.1399  -4.8659  -4.8551   3.3271   3.5711
     6.0354   6.1557  15.5078  15.5963

     occupation numbers 
     1.0000   1.0000   1.0000   1.0000   1.0000   1.0000   1.0000   1.0001
    -0.0001  -0.0000  -0.0000  -0.0000

          k =-0.3333-0.4811-0.0741 (  3234 PWs)   bands (ev):

    -9.0111  -8.9939  -7.1532  -7.1421  -4.8642  -4.8559   3.3560   3.5429
     6.0474   6.1394  15.4049  15.4971

     occupation numbers 
     1.0000   1.0000   1.0000   1.0000   1.0000   1.0000   1.0000   1.0001
    -0.0001  -0.0000  -0.0000  -0.0000

          k = 0.5833-0.0481-0.0741 (  3234 PWs)   bands (ev):

    -9.0111  -8.9940  -7.1527  -7.1416  -4.8646  -4.8563   3.3555   3.5423
     6.0481   6.1403  15.4047  15.4965

     occupation numbers 
     1.0000   1.0000   1.0000   1.0000   1.0000   1.0000   1.0000   1.0001
    -0.0001  -0.0000  -0.0000  -0.0000

          k =-0.3333-0.4811-0.1112 (  3241 PWs)   bands (ev):

    -9.0071  -8.9979  -7.1507  -7.1446  -4.8623  -4.8578   3.3986   3.4998
     6.0671   6.1169  15.3423  15.3978

     occupation numbers 
     1.0000   1.0000   1.0000   1.0000   1.0000   1.0000   1.0000   1.0000
    -0.0001  -0.0000  -0.0000  -0.0000

          k = 0.5833-0.0481-0.1112 (  3241 PWs)   bands (ev):

    -9.0072  -8.9980  -7.1501  -7.1441  -4.8628  -4.8583   3.3981   3.4992
     6.0679   6.1178  15.3421  15.3973

     occupation numbers 
     1.0000   1.0000   1.0000   1.0000   1.0000   1.0000   1.0000   1.0000
    -0.0001  -0.0000  -0.0000  -0.0000

          k =-0.3333-0.4811 0.1483 (  3254 PWs)   bands (ev):

    -9.0025  -9.0025  -7.1477  -7.1477  -4.8601  -4.8601   3.4491   3.4491
     6.0914   6.0914  15.3403  15.3403

     occupation numbers 
     1.0000   1.0000   1.0000   1.0000   1.0000   1.0000   1.0000   1.0000
    -0.0000  -0.0000  -0.0000  -0.0000

          k = 0.5833-0.0481 0.1483 (  3254 PWs)   bands (ev):

    -9.0026  -9.0026  -7.1471  -7.1471  -4.8605  -4.8605   3.4486   3.4486
     6.0923   6.0923  15.3399  15.3400

     occupation numbers 
     1.0000   1.0000   1.0000   1.0000   1.0000   1.0000   1.0000   1.0000
    -0.0000  -0.0000  -0.0000  -0.0000

     the Fermi energy is     4.7994 ev

!    total energy              =     -49.71577128 Ry
     estimated scf accuracy    <          2.0E-10 Ry
     smearing contrib. (-TS)   =      -0.00041931 Ry
     internal energy E=F+TS    =     -49.71535198 Ry

     The total energy is F=E-TS. E is the sum of the following terms:
     one-electron contribution =     -29.91490954 Ry
     hartree contribution      =      21.74075943 Ry
     xc contribution           =     -18.53789935 Ry
     ewald contribution        =     -23.00330253 Ry

     convergence has been achieved in   7 iterations

     Forces acting on atoms (cartesian axes, Ry/au):

     atom    1 type  1   force =     0.00000000   -0.00027599    0.00000000
     atom    2 type  1   force =     0.00000000    0.00027599    0.00000000
     atom    3 type  1   force =     0.00000000    0.00027601    0.00000000
     atom    4 type  1   force =    -0.00000000   -0.00027601    0.00000000
     The non-local contrib.  to forces
     atom    1 type  1   force =     0.00000000   -0.00025689    0.00000000
     atom    2 type  1   force =     0.00000000    0.00025689    0.00000000
     atom    3 type  1   force =     0.00000000    0.00025682    0.00000000
     atom    4 type  1   force =     0.00000000   -0.00025682    0.00000000
     The ionic contribution  to forces
     atom    1 type  1   force =    -0.00000000   -0.00098176   -0.00000000
     atom    2 type  1   force =    -0.00000000    0.00098176    0.00000000
     atom    3 type  1   force =    -0.00000000    0.00098202   -0.00000000
     atom    4 type  1   force =     0.00000000   -0.00098202    0.00000000
     The local contribution  to forces
     atom    1 type  1   force =     0.00000000    0.00095437    0.00000000
     atom    2 type  1   force =    -0.00000000   -0.00095437    0.00000000
     atom    3 type  1   force =    -0.00000000   -0.00095469    0.00000000
     atom    4 type  1   force =    -0.00000000    0.00095469    0.00000000
     The core correction contribution to forces
     atom    1 type  1   force =     0.00000000    0.00000833   -0.00000000
     atom    2 type  1   force =    -0.00000000   -0.00000833   -0.00000000
     atom    3 type  1   force =    -0.00000000   -0.00000830   -0.00000000
     atom    4 type  1   force =     0.00000000    0.00000830   -0.00000000
     The Hubbard contrib.    to forces
     atom    1 type  1   force =     0.00000000    0.00000000    0.00000000
     atom    2 type  1   force =     0.00000000    0.00000000    0.00000000
     atom    3 type  1   force =     0.00000000    0.00000000    0.00000000
     atom    4 type  1   force =     0.00000000    0.00000000    0.00000000
     The SCF correction term to forces
     atom    1 type  1   force =    -0.00000000   -0.00000004   -0.00000000
     atom    2 type  1   force =    -0.00000000    0.00000004   -0.00000000
     atom    3 type  1   force =     0.00000000    0.00000016    0.00000000
     atom    4 type  1   force =    -0.00000000   -0.00000016   -0.00000000

     Total force =     0.000552     Total SCF correction =     0.000000


     Computing stress (Cartesian axis) and pressure

          total   stress  (Ry/bohr**3)                   (kbar)     P=      -12.17
  -0.00012527   0.00000000   0.00000000          -18.43        0.00        0.00
   0.00000000  -0.00012417   0.00000000            0.00      -18.27        0.00
   0.00000000   0.00000000   0.00000134            0.00        0.00        0.20

     kinetic stress (kbar)   9258.48      0.00      0.00
                                0.00   9257.75      0.00
                                0.00      0.00  10519.52

     local   stress (kbar) -26775.48     -0.00      0.00
                               -0.00 -26779.91      0.00
                                0.00      0.00  27091.32

     nonloc. stress (kbar)   1810.83      0.00      0.00
                                0.00   1810.98     -0.00
                                0.00      0.00   1664.63

     hartree stress (kbar)   9939.83      0.00      0.00
                                0.00   9940.47     -0.00
                                0.00     -0.00  -9112.27

     exc-cor stress (kbar)   -165.03      0.00      0.00
                                0.00   -165.00     -0.00
                                0.00     -0.00   -269.77

     corecor stress (kbar)  -2235.91      0.00     -0.00
                                0.00  -2235.94      0.00
                               -0.00      0.00  -2197.64

     ewald   stress (kbar)   8148.85     -0.00     -0.00
                               -0.00   8153.39      0.00
                               -0.00      0.00 -27695.59

     hubbard stress (kbar)      0.00      0.00      0.00
                                0.00      0.00      0.00
                                0.00      0.00      0.00

     DFT-D   stress (kbar)      0.00      0.00      0.00
                                0.00      0.00      0.00
                                0.00      0.00      0.00

     XDM     stress (kbar)      0.00      0.00      0.00
                                0.00      0.00      0.00
                                0.00      0.00      0.00

     dft-nl  stress (kbar)      0.00      0.00      0.00
                                0.00      0.00      0.00
                                0.00      0.00      0.00

     TS-vdW  stress (kbar)      0.00      0.00      0.00
                                0.00      0.00      0.00
                                0.00      0.00      0.00



     Writing output data file ./tmp/C.save/

     init_run     :     13.06s CPU     13.46s WALL (       1 calls)
     electrons    :    186.14s CPU    189.61s WALL (       1 calls)
     forces       :      3.35s CPU      3.44s WALL (       1 calls)
     stress       :     10.86s CPU     11.07s WALL (       1 calls)

     Called by init_run:
     wfcinit      :     11.34s CPU     11.63s WALL (       1 calls)
     wfcinit:atom :      0.34s CPU      0.37s WALL (     215 calls)
     wfcinit:wfcr :      8.99s CPU      9.20s WALL (     215 calls)
     potinit      :      0.51s CPU      0.54s WALL (       1 calls)
     hinit0       :      0.90s CPU      0.92s WALL (       1 calls)

     Called by electrons:
     c_bands      :    155.39s CPU    157.88s WALL (       7 calls)
     sum_band     :     27.57s CPU     28.22s WALL (       7 calls)
     v_of_rho     :      2.51s CPU      2.69s WALL (       8 calls)
     v_h          :      0.11s CPU      0.11s WALL (       8 calls)
     v_xc         :      3.01s CPU      3.22s WALL (      10 calls)
     newd         :      0.76s CPU      0.97s WALL (       8 calls)
     mix_rho      :      0.20s CPU      0.21s WALL (       7 calls)

     Called by c_bands:
     init_us_2    :      6.69s CPU      6.83s WALL (    3655 calls)
     cegterg      :    146.69s CPU    148.99s WALL (    1505 calls)

     Called by sum_band:
     sum_band:wei :      0.06s CPU      0.06s WALL (       7 calls)
     sum_band:loo :     26.20s CPU     26.59s WALL (       7 calls)
     sum_band:buf :      0.26s CPU      0.26s WALL (    1505 calls)
     sum_band:ini :      2.77s CPU      2.81s WALL (    1505 calls)
     sum_band:cal :      2.04s CPU      2.06s WALL (    1505 calls)
     sum_band:bec :      0.04s CPU      0.04s WALL (    1505 calls)
     addusdens    :      0.68s CPU      0.94s WALL (       7 calls)
     addusd:skk   :      0.02s CPU      0.03s WALL (       7 calls)
     addusd:dgemm :      0.18s CPU      0.35s WALL (       7 calls)
     addusd:qvan2 :      0.30s CPU      0.31s WALL (       7 calls)

     Called by *egterg:
     cdiaghg      :      2.54s CPU      2.60s WALL (    6519 calls)
     cegterg:over :      6.44s CPU      6.55s WALL (    5014 calls)
     cegterg:upda :      4.42s CPU      4.51s WALL (    5014 calls)
     cegterg:last :      7.06s CPU      7.18s WALL (    3278 calls)
     h_psi        :    123.32s CPU    125.32s WALL (    6734 calls)
     s_psi        :      5.99s CPU      6.10s WALL (    6734 calls)
     g_psi        :      1.53s CPU      1.56s WALL (    5014 calls)

     Called by h_psi:
     h_psi:calbec :      6.98s CPU      7.09s WALL (    6734 calls)
     vloc_psi     :    108.59s CPU    110.36s WALL (    6734 calls)
     add_vuspsi   :      6.60s CPU      6.71s WALL (    6734 calls)

     General routines
     calbec       :     10.25s CPU     10.43s WALL (    9314 calls)
     fft          :      1.19s CPU      1.20s WALL (     127 calls)
     ffts         :      0.03s CPU      0.03s WALL (      15 calls)
     fftw         :    107.24s CPU    109.08s WALL (  122284 calls)
     interpolate  :      0.09s CPU      0.09s WALL (       8 calls)

     Parallel routines

     PWSCF        :   3m33.80s CPU   3m38.38s WALL


   This run was terminated on:  12:26: 2  23May2022            

=------------------------------------------------------------------------------=
   JOB DONE.
=------------------------------------------------------------------------------=
