
     Program PWSCF v.6.7MaX starts on 23May2022 at 11:37:25 

     This program is part of the open-source Quantum ESPRESSO suite
     for quantum simulation of materials; please cite
         "P. Giannozzi et al., J. Phys.:Condens. Matter 21 395502 (2009);
         "P. Giannozzi et al., J. Phys.:Condens. Matter 29 465901 (2017);
          URL http://www.quantum-espresso.org", 
     in publications or presentations arising from this work. More details at
     http://www.quantum-espresso.org/quote

     Parallel version (MPI), running on     1 processors

     MPI processes distributed on     1 nodes
     Waiting for input...
     Reading input from standard input

     Current dimensions of program PWSCF are:
     Max number of different atomic species (ntypx) = 10
     Max number of k-points (npk) =  40000
     Max angular momentum in pseudopotentials (lmaxx) =  3

     Subspace diagonalization in iterative solution of the eigenvalue problem:
     a serial algorithm will be used


     G-vector sticks info
     --------------------
     sticks:   dense  smooth     PW     G-vecs:    dense   smooth      PW
     Sum         547     265     85                34301    12031    2223



     bravais-lattice index     =            4
     lattice parameter (alat)  =       4.6676  a.u.
     unit-cell volume          =     297.0066 (a.u.)^3
     number of atoms/cell      =            4
     number of atomic types    =            1
     number of electrons       =        16.00
     number of Kohn-Sham states=           12
     kinetic-energy cutoff     =      45.0000  Ry
     charge density cutoff     =     360.0000  Ry
     scf convergence threshold =      1.0E-09
     mixing beta               =       0.7000
     number of iterations used =            8  plain     mixing
     Exchange-correlation= PBE
                           (   1   4   3   4   0   0   0)

     celldm(1)=   4.667624  celldm(2)=   1.000000  celldm(3)=   3.372470
     celldm(4)=   0.000000  celldm(5)=   0.000000  celldm(6)=   0.000000

     crystal axes: (cart. coord. in units of alat)
               a(1) = (   1.000000   0.000000   0.000000 )  
               a(2) = (  -0.500000   0.866025   0.000000 )  
               a(3) = (   0.000000   0.000000   3.372470 )  

     reciprocal axes: (cart. coord. in units 2 pi/alat)
               b(1) = (  1.000000  0.577350 -0.000000 )  
               b(2) = (  0.000000  1.154701  0.000000 )  
               b(3) = (  0.000000 -0.000000  0.296519 )  


     PseudoPot. # 1 for C  read from file:
     /home/max/Desktop/graphite_DFT/Pseudo/C.pbe-n-rrkjus_psl.1.0.0.UPF
     MD5 check sum: 1fdd950c42eb37d8afe3dd2f8d12311e
     Pseudo is Ultrasoft + core correction, Zval =  4.0
     Generated using &quot;atomic&quot; code by A. Dal Corso  v.6.3MaX
     Using radial grid of 1073 points,  4 beta functions with: 
                l(1) =   0
                l(2) =   0
                l(3) =   1
                l(4) =   1
     Q(r) pseudized with 0 coefficients 


     atomic species   valence    mass     pseudopotential
        C              4.00    12.01100     C ( 1.00)

      8 Sym. Ops., with inversion, found ( 4 have fractional translation)


                                    s                        frac. trans.

      isym =  1     identity                                     

 cryst.   s( 1) = (     1          0          0      )
                  (     0          1          0      )
                  (     0          0          1      )

 cart.    s( 1) = (  1.0000000  0.0000000  0.0000000 )
                  (  0.0000000  1.0000000  0.0000000 )
                  (  0.0000000  0.0000000  1.0000000 )


      isym =  2     180 deg rotation - cart. axis [0,0,1]        

 cryst.   s( 2) = (    -1          0          0      )    f =(  0.0000000 )
                  (     0         -1          0      )       (  0.0000000 )
                  (     0          0          1      )       ( -0.5000000 )

 cart.    s( 2) = ( -1.0000000  0.0000000  0.0000000 )    f =(  0.0000000 )
                  (  0.0000000 -1.0000000  0.0000000 )       (  0.0000000 )
                  (  0.0000000  0.0000000  1.0000000 )       ( -1.6862348 )


      isym =  3     180 deg rotation - cart. axis [0,1,0]        

 cryst.   s( 3) = (    -1          0          0      )    f =(  0.0000000 )
                  (     1          1          0      )       (  0.0000000 )
                  (     0          0         -1      )       (  0.5000000 )

 cart.    s( 3) = ( -1.0000000  0.0000000  0.0000000 )    f =(  0.0000000 )
                  (  0.0000000  1.0000000  0.0000000 )       (  0.0000000 )
                  (  0.0000000  0.0000000 -1.0000000 )       (  1.6862348 )


      isym =  4     180 deg rotation - cart. axis [1,0,0]        

 cryst.   s( 4) = (     1          0          0      )
                  (    -1         -1          0      )
                  (     0          0         -1      )

 cart.    s( 4) = (  1.0000000  0.0000000  0.0000000 )
                  (  0.0000000 -1.0000000  0.0000000 )
                  (  0.0000000  0.0000000 -1.0000000 )


      isym =  5     inversion                                    

 cryst.   s( 5) = (    -1          0          0      )
                  (     0         -1          0      )
                  (     0          0         -1      )

 cart.    s( 5) = ( -1.0000000  0.0000000  0.0000000 )
                  (  0.0000000 -1.0000000  0.0000000 )
                  (  0.0000000  0.0000000 -1.0000000 )


      isym =  6     inv. 180 deg rotation - cart. axis [0,0,1]   

 cryst.   s( 6) = (     1          0          0      )    f =(  0.0000000 )
                  (     0          1          0      )       (  0.0000000 )
                  (     0          0         -1      )       (  0.5000000 )

 cart.    s( 6) = (  1.0000000  0.0000000  0.0000000 )    f =(  0.0000000 )
                  (  0.0000000  1.0000000  0.0000000 )       (  0.0000000 )
                  (  0.0000000  0.0000000 -1.0000000 )       (  1.6862348 )


      isym =  7     inv. 180 deg rotation - cart. axis [0,1,0]   

 cryst.   s( 7) = (     1          0          0      )    f =(  0.0000000 )
                  (    -1         -1          0      )       (  0.0000000 )
                  (     0          0          1      )       ( -0.5000000 )

 cart.    s( 7) = (  1.0000000  0.0000000  0.0000000 )    f =(  0.0000000 )
                  (  0.0000000 -1.0000000  0.0000000 )       (  0.0000000 )
                  (  0.0000000  0.0000000  1.0000000 )       ( -1.6862348 )


      isym =  8     inv. 180 deg rotation - cart. axis [1,0,0]   

 cryst.   s( 8) = (    -1          0          0      )
                  (     1          1          0      )
                  (     0          0          1      )

 cart.    s( 8) = ( -1.0000000  0.0000000  0.0000000 )
                  (  0.0000000  1.0000000  0.0000000 )
                  (  0.0000000  0.0000000  1.0000000 )


     point group D_2h (mmm) 
     there are  8 classes
     the character table:

       E     C2    C2'   C2''  i     s_v   s_v'  s_v''
A_g    1.00  1.00  1.00  1.00  1.00  1.00  1.00  1.00
B_1g   1.00  1.00 -1.00 -1.00  1.00  1.00 -1.00 -1.00
B_2g   1.00 -1.00  1.00 -1.00  1.00 -1.00  1.00 -1.00
B_3g   1.00 -1.00 -1.00  1.00  1.00 -1.00 -1.00  1.00
A_u    1.00  1.00  1.00  1.00 -1.00 -1.00 -1.00 -1.00
B_1u   1.00  1.00 -1.00 -1.00 -1.00 -1.00  1.00  1.00
B_2u   1.00 -1.00  1.00 -1.00 -1.00  1.00 -1.00  1.00
B_3u   1.00 -1.00 -1.00  1.00 -1.00  1.00  1.00 -1.00

     the symmetry operations in each class and the name of the first element:

     E        1
          identity                                               
     C2       2
          180 deg rotation - cart. axis [0,0,1]                  
     C2'      4
          180 deg rotation - cart. axis [1,0,0]                  
     C2''     3
          180 deg rotation - cart. axis [0,1,0]                  
     i        5
          inversion                                              
     s_v      6
          inv. 180 deg rotation - cart. axis [0,0,1]             
     s_v'     8
          inv. 180 deg rotation - cart. axis [1,0,0]             
     s_v''    7
          inv. 180 deg rotation - cart. axis [0,1,0]             

   Cartesian axes

     site n.     atom                  positions (alat units)
         1           C   tau(   1) = (   0.0000000   0.0000000   0.8431174  )
         2           C   tau(   2) = (   0.0000000   0.0000000   2.5293522  )
         3           C   tau(   3) = (   0.0000000   0.5772925   0.8431174  )
         4           C   tau(   4) = (   0.5000000   0.2887329   2.5293522  )

   Crystallographic axes

     site n.     atom                  positions (cryst. coord.)
         1           C   tau(   1) = (  0.0000000  0.0000000  0.2500000  )
         2           C   tau(   2) = (  0.0000000  0.0000000  0.7500000  )
         3           C   tau(   3) = (  0.3333000  0.6666000  0.2500000  )
         4           C   tau(   4) = (  0.6667000  0.3334000  0.7500000  )

     number of k points=   215  Methfessel-Paxton smearing, width (Ry)=  0.0300
                       cart. coord. in units 2pi/alat
        k(    1) = (   0.0000000   0.0000000   0.0000000), wk =   0.0017361
        k(    2) = (   0.0000000   0.0000000   0.0370648), wk =   0.0034722
        k(    3) = (   0.0000000   0.0000000   0.0741297), wk =   0.0034722
        k(    4) = (   0.0000000   0.0000000   0.1111945), wk =   0.0034722
        k(    5) = (   0.0000000   0.0000000  -0.1482593), wk =   0.0017361
        k(    6) = (   0.0000000   0.0962250   0.0000000), wk =   0.0034722
        k(    7) = (   0.0000000   0.0962250   0.0370648), wk =   0.0069444
        k(    8) = (   0.0000000   0.0962250   0.0741297), wk =   0.0069444
        k(    9) = (   0.0000000   0.0962250   0.1111945), wk =   0.0069444
        k(   10) = (   0.0000000   0.0962250  -0.1482593), wk =   0.0034722
        k(   11) = (   0.0000000   0.1924501   0.0000000), wk =   0.0034722
        k(   12) = (   0.0000000   0.1924501   0.0370648), wk =   0.0069444
        k(   13) = (   0.0000000   0.1924501   0.0741297), wk =   0.0069444
        k(   14) = (   0.0000000   0.1924501   0.1111945), wk =   0.0069444
        k(   15) = (   0.0000000   0.1924501  -0.1482593), wk =   0.0034722
        k(   16) = (   0.0000000   0.2886751   0.0000000), wk =   0.0034722
        k(   17) = (   0.0000000   0.2886751   0.0370648), wk =   0.0069444
        k(   18) = (   0.0000000   0.2886751   0.0741297), wk =   0.0069444
        k(   19) = (   0.0000000   0.2886751   0.1111945), wk =   0.0069444
        k(   20) = (   0.0000000   0.2886751  -0.1482593), wk =   0.0034722
        k(   21) = (   0.0000000   0.3849002   0.0000000), wk =   0.0034722
        k(   22) = (   0.0000000   0.3849002   0.0370648), wk =   0.0069444
        k(   23) = (   0.0000000   0.3849002   0.0741297), wk =   0.0069444
        k(   24) = (   0.0000000   0.3849002   0.1111945), wk =   0.0069444
        k(   25) = (   0.0000000   0.3849002  -0.1482593), wk =   0.0034722
        k(   26) = (   0.0000000   0.4811252   0.0000000), wk =   0.0034722
        k(   27) = (   0.0000000   0.4811252   0.0370648), wk =   0.0069444
        k(   28) = (   0.0000000   0.4811252   0.0741297), wk =   0.0069444
        k(   29) = (   0.0000000   0.4811252   0.1111945), wk =   0.0069444
        k(   30) = (   0.0000000   0.4811252  -0.1482593), wk =   0.0034722
        k(   31) = (   0.0000000  -0.5773503   0.0000000), wk =   0.0017361
        k(   32) = (   0.0000000  -0.5773503   0.0370648), wk =   0.0034722
        k(   33) = (   0.0000000  -0.5773503   0.0741297), wk =   0.0034722
        k(   34) = (   0.0000000  -0.5773503   0.1111945), wk =   0.0034722
        k(   35) = (   0.0000000  -0.5773503  -0.1482593), wk =   0.0017361
        k(   36) = (   0.0833333   0.1443376   0.0000000), wk =   0.0069444
        k(   37) = (   0.0833333   0.1443376   0.0370648), wk =   0.0138889
        k(   38) = (   0.0833333   0.1443376   0.0741297), wk =   0.0138889
        k(   39) = (   0.0833333   0.1443376   0.1111945), wk =   0.0138889
        k(   40) = (   0.0833333   0.1443376  -0.1482593), wk =   0.0069444
        k(   41) = (   0.0833333   0.2405626   0.0000000), wk =   0.0069444
        k(   42) = (   0.0833333   0.2405626   0.0370648), wk =   0.0138889
        k(   43) = (   0.0833333   0.2405626   0.0741297), wk =   0.0138889
        k(   44) = (   0.0833333   0.2405626   0.1111945), wk =   0.0138889
        k(   45) = (   0.0833333   0.2405626  -0.1482593), wk =   0.0069444
        k(   46) = (   0.0833333   0.3367877   0.0000000), wk =   0.0069444
        k(   47) = (   0.0833333   0.3367877   0.0370648), wk =   0.0138889
        k(   48) = (   0.0833333   0.3367877   0.0741297), wk =   0.0138889
        k(   49) = (   0.0833333   0.3367877   0.1111945), wk =   0.0138889
        k(   50) = (   0.0833333   0.3367877  -0.1482593), wk =   0.0069444
        k(   51) = (   0.0833333   0.4330127   0.0000000), wk =   0.0069444
        k(   52) = (   0.0833333   0.4330127   0.0370648), wk =   0.0138889
        k(   53) = (   0.0833333   0.4330127   0.0741297), wk =   0.0138889
        k(   54) = (   0.0833333   0.4330127   0.1111945), wk =   0.0138889
        k(   55) = (   0.0833333   0.4330127  -0.1482593), wk =   0.0069444
        k(   56) = (   0.0833333   0.5292377   0.0000000), wk =   0.0069444
        k(   57) = (   0.0833333   0.5292377   0.0370648), wk =   0.0138889
        k(   58) = (   0.0833333   0.5292377   0.0741297), wk =   0.0138889
        k(   59) = (   0.0833333   0.5292377   0.1111945), wk =   0.0138889
        k(   60) = (   0.0833333   0.5292377  -0.1482593), wk =   0.0069444
        k(   61) = (   0.1666667   0.2886751   0.0000000), wk =   0.0069444
        k(   62) = (   0.1666667   0.2886751   0.0370648), wk =   0.0138889
        k(   63) = (   0.1666667   0.2886751   0.0741297), wk =   0.0138889
        k(   64) = (   0.1666667   0.2886751   0.1111945), wk =   0.0138889
        k(   65) = (   0.1666667   0.2886751  -0.1482593), wk =   0.0069444
        k(   66) = (   0.1666667   0.3849002   0.0000000), wk =   0.0069444
        k(   67) = (   0.1666667   0.3849002   0.0370648), wk =   0.0138889
        k(   68) = (   0.1666667   0.3849002   0.0741297), wk =   0.0138889
        k(   69) = (   0.1666667   0.3849002   0.1111945), wk =   0.0138889
        k(   70) = (   0.1666667   0.3849002  -0.1482593), wk =   0.0069444
        k(   71) = (   0.1666667   0.4811252   0.0000000), wk =   0.0069444
        k(   72) = (   0.1666667   0.4811252   0.0370648), wk =   0.0138889
        k(   73) = (   0.1666667   0.4811252   0.0741297), wk =   0.0138889
        k(   74) = (   0.1666667   0.4811252   0.1111945), wk =   0.0138889
        k(   75) = (   0.1666667   0.4811252  -0.1482593), wk =   0.0069444
        k(   76) = (   0.1666667   0.5773503   0.0000000), wk =   0.0034722
        k(   77) = (   0.1666667   0.5773503   0.0370648), wk =   0.0069444
        k(   78) = (   0.1666667   0.5773503   0.0741297), wk =   0.0069444
        k(   79) = (   0.1666667   0.5773503   0.1111945), wk =   0.0069444
        k(   80) = (   0.1666667   0.5773503  -0.1482593), wk =   0.0034722
        k(   81) = (   0.2500000   0.4330127   0.0000000), wk =   0.0069444
        k(   82) = (   0.2500000   0.4330127   0.0370648), wk =   0.0138889
        k(   83) = (   0.2500000   0.4330127   0.0741297), wk =   0.0138889
        k(   84) = (   0.2500000   0.4330127   0.1111945), wk =   0.0138889
        k(   85) = (   0.2500000   0.4330127  -0.1482593), wk =   0.0069444
        k(   86) = (   0.2500000   0.5292377   0.0000000), wk =   0.0069444
        k(   87) = (   0.2500000   0.5292377   0.0370648), wk =   0.0138889
        k(   88) = (   0.2500000   0.5292377   0.0741297), wk =   0.0138889
        k(   89) = (   0.2500000   0.5292377   0.1111945), wk =   0.0138889
        k(   90) = (   0.2500000   0.5292377  -0.1482593), wk =   0.0069444
        k(   91) = (   0.3333333   0.5773503   0.0000000), wk =   0.0034722
        k(   92) = (   0.3333333   0.5773503   0.0370648), wk =   0.0069444
        k(   93) = (   0.3333333   0.5773503   0.0741297), wk =   0.0069444
        k(   94) = (   0.3333333   0.5773503   0.1111945), wk =   0.0069444
        k(   95) = (   0.3333333   0.5773503  -0.1482593), wk =   0.0034722
        k(   96) = (  -0.0833333  -0.0481125   0.0000000), wk =   0.0069444
        k(   97) = (  -0.0833333  -0.0481125  -0.0370648), wk =   0.0138889
        k(   98) = (  -0.0833333  -0.0481125  -0.0741297), wk =   0.0138889
        k(   99) = (  -0.0833333  -0.0481125  -0.1111945), wk =   0.0138889
        k(  100) = (  -0.0833333  -0.0481125   0.1482593), wk =   0.0069444
        k(  101) = (  -0.1666667  -0.0962250   0.0000000), wk =   0.0069444
        k(  102) = (  -0.1666667  -0.0962250  -0.0370648), wk =   0.0138889
        k(  103) = (  -0.1666667  -0.0962250  -0.0741297), wk =   0.0138889
        k(  104) = (  -0.1666667  -0.0962250  -0.1111945), wk =   0.0138889
        k(  105) = (  -0.1666667  -0.0962250   0.1482593), wk =   0.0069444
        k(  106) = (  -0.2500000  -0.1443376   0.0000000), wk =   0.0069444
        k(  107) = (  -0.2500000  -0.1443376  -0.0370648), wk =   0.0138889
        k(  108) = (  -0.2500000  -0.1443376  -0.0741297), wk =   0.0138889
        k(  109) = (  -0.2500000  -0.1443376  -0.1111945), wk =   0.0138889
        k(  110) = (  -0.2500000  -0.1443376   0.1482593), wk =   0.0069444
        k(  111) = (  -0.3333333  -0.1924501   0.0000000), wk =   0.0069444
        k(  112) = (  -0.3333333  -0.1924501  -0.0370648), wk =   0.0138889
        k(  113) = (  -0.3333333  -0.1924501  -0.0741297), wk =   0.0138889
        k(  114) = (  -0.3333333  -0.1924501  -0.1111945), wk =   0.0138889
        k(  115) = (  -0.3333333  -0.1924501   0.1482593), wk =   0.0069444
        k(  116) = (  -0.4166667  -0.2405626   0.0000000), wk =   0.0069444
        k(  117) = (  -0.4166667  -0.2405626  -0.0370648), wk =   0.0138889
        k(  118) = (  -0.4166667  -0.2405626  -0.0741297), wk =   0.0138889
        k(  119) = (  -0.4166667  -0.2405626  -0.1111945), wk =   0.0138889
        k(  120) = (  -0.4166667  -0.2405626   0.1482593), wk =   0.0069444
        k(  121) = (   0.5000000   0.2886751   0.0000000), wk =   0.0034722
        k(  122) = (   0.5000000   0.2886751  -0.0370648), wk =   0.0069444
        k(  123) = (   0.5000000   0.2886751  -0.0741297), wk =   0.0069444
        k(  124) = (   0.5000000   0.2886751  -0.1111945), wk =   0.0069444
        k(  125) = (   0.5000000   0.2886751   0.1482593), wk =   0.0034722
        k(  126) = (   0.1666667   0.0000000   0.0000000), wk =   0.0034722
        k(  127) = (   0.1666667   0.0000000  -0.0370648), wk =   0.0069444
        k(  128) = (   0.1666667   0.0000000  -0.0741297), wk =   0.0069444
        k(  129) = (   0.1666667   0.0000000  -0.1111945), wk =   0.0069444
        k(  130) = (   0.1666667   0.0000000   0.1482593), wk =   0.0034722
        k(  131) = (  -0.1666667  -0.1924501   0.0000000), wk =   0.0069444
        k(  132) = (   0.2500000  -0.0481125   0.0000000), wk =   0.0069444
        k(  133) = (  -0.1666667  -0.1924501  -0.0370648), wk =   0.0138889
        k(  134) = (   0.2500000  -0.0481125  -0.0370648), wk =   0.0138889
        k(  135) = (  -0.1666667  -0.1924501  -0.0741297), wk =   0.0138889
        k(  136) = (   0.2500000  -0.0481125  -0.0741297), wk =   0.0138889
        k(  137) = (  -0.1666667  -0.1924501  -0.1111945), wk =   0.0138889
        k(  138) = (   0.2500000  -0.0481125  -0.1111945), wk =   0.0138889
        k(  139) = (  -0.1666667  -0.1924501   0.1482593), wk =   0.0069444
        k(  140) = (   0.2500000  -0.0481125   0.1482593), wk =   0.0069444
        k(  141) = (  -0.2500000  -0.2405626   0.0000000), wk =   0.0069444
        k(  142) = (   0.3333333  -0.0962250   0.0000000), wk =   0.0069444
        k(  143) = (  -0.2500000  -0.2405626  -0.0370648), wk =   0.0138889
        k(  144) = (   0.3333333  -0.0962250  -0.0370648), wk =   0.0138889
        k(  145) = (  -0.2500000  -0.2405626  -0.0741297), wk =   0.0138889
        k(  146) = (   0.3333333  -0.0962250  -0.0741297), wk =   0.0138889
        k(  147) = (  -0.2500000  -0.2405626  -0.1111945), wk =   0.0138889
        k(  148) = (   0.3333333  -0.0962250  -0.1111945), wk =   0.0138889
        k(  149) = (  -0.2500000  -0.2405626   0.1482593), wk =   0.0069444
        k(  150) = (   0.3333333  -0.0962250   0.1482593), wk =   0.0069444
        k(  151) = (  -0.3333333  -0.2886751   0.0000000), wk =   0.0069444
        k(  152) = (   0.4166667  -0.1443376   0.0000000), wk =   0.0069444
        k(  153) = (  -0.3333333  -0.2886751  -0.0370648), wk =   0.0138889
        k(  154) = (   0.4166667  -0.1443376  -0.0370648), wk =   0.0138889
        k(  155) = (  -0.3333333  -0.2886751  -0.0741297), wk =   0.0138889
        k(  156) = (   0.4166667  -0.1443376  -0.0741297), wk =   0.0138889
        k(  157) = (  -0.3333333  -0.2886751  -0.1111945), wk =   0.0138889
        k(  158) = (   0.4166667  -0.1443376  -0.1111945), wk =   0.0138889
        k(  159) = (  -0.3333333  -0.2886751   0.1482593), wk =   0.0069444
        k(  160) = (   0.4166667  -0.1443376   0.1482593), wk =   0.0069444
        k(  161) = (  -0.4166667  -0.3367877   0.0000000), wk =   0.0069444
        k(  162) = (   0.5000000  -0.1924501   0.0000000), wk =   0.0069444
        k(  163) = (  -0.4166667  -0.3367877  -0.0370648), wk =   0.0138889
        k(  164) = (   0.5000000  -0.1924501  -0.0370648), wk =   0.0138889
        k(  165) = (  -0.4166667  -0.3367877  -0.0741297), wk =   0.0138889
        k(  166) = (   0.5000000  -0.1924501  -0.0741297), wk =   0.0138889
        k(  167) = (  -0.4166667  -0.3367877  -0.1111945), wk =   0.0138889
        k(  168) = (   0.5000000  -0.1924501  -0.1111945), wk =   0.0138889
        k(  169) = (  -0.4166667  -0.3367877   0.1482593), wk =   0.0069444
        k(  170) = (   0.5000000  -0.1924501   0.1482593), wk =   0.0069444
        k(  171) = (   0.3333333   0.0000000   0.0000000), wk =   0.0034722
        k(  172) = (   0.3333333   0.0000000  -0.0370648), wk =   0.0069444
        k(  173) = (   0.3333333   0.0000000  -0.0741297), wk =   0.0069444
        k(  174) = (   0.3333333   0.0000000  -0.1111945), wk =   0.0069444
        k(  175) = (   0.3333333   0.0000000   0.1482593), wk =   0.0034722
        k(  176) = (  -0.2500000  -0.3367877   0.0000000), wk =   0.0069444
        k(  177) = (   0.4166667  -0.0481125   0.0000000), wk =   0.0069444
        k(  178) = (  -0.2500000  -0.3367877  -0.0370648), wk =   0.0138889
        k(  179) = (   0.4166667  -0.0481125  -0.0370648), wk =   0.0138889
        k(  180) = (  -0.2500000  -0.3367877  -0.0741297), wk =   0.0138889
        k(  181) = (   0.4166667  -0.0481125  -0.0741297), wk =   0.0138889
        k(  182) = (  -0.2500000  -0.3367877  -0.1111945), wk =   0.0138889
        k(  183) = (   0.4166667  -0.0481125  -0.1111945), wk =   0.0138889
        k(  184) = (  -0.2500000  -0.3367877   0.1482593), wk =   0.0069444
        k(  185) = (   0.4166667  -0.0481125   0.1482593), wk =   0.0069444
        k(  186) = (  -0.3333333  -0.3849002   0.0000000), wk =   0.0069444
        k(  187) = (   0.5000000  -0.0962250   0.0000000), wk =   0.0069444
        k(  188) = (  -0.3333333  -0.3849002  -0.0370648), wk =   0.0138889
        k(  189) = (   0.5000000  -0.0962250  -0.0370648), wk =   0.0138889
        k(  190) = (  -0.3333333  -0.3849002  -0.0741297), wk =   0.0138889
        k(  191) = (   0.5000000  -0.0962250  -0.0741297), wk =   0.0138889
        k(  192) = (  -0.3333333  -0.3849002  -0.1111945), wk =   0.0138889
        k(  193) = (   0.5000000  -0.0962250  -0.1111945), wk =   0.0138889
        k(  194) = (  -0.3333333  -0.3849002   0.1482593), wk =   0.0069444
        k(  195) = (   0.5000000  -0.0962250   0.1482593), wk =   0.0069444
        k(  196) = (  -0.4166667  -0.4330127   0.0000000), wk =   0.0069444
        k(  197) = (  -0.4166667  -0.4330127  -0.0370648), wk =   0.0138889
        k(  198) = (  -0.4166667  -0.4330127  -0.0741297), wk =   0.0138889
        k(  199) = (  -0.4166667  -0.4330127  -0.1111945), wk =   0.0138889
        k(  200) = (  -0.4166667  -0.4330127   0.1482593), wk =   0.0069444
        k(  201) = (   0.5000000  -0.0000000   0.0000000), wk =   0.0034722
        k(  202) = (   0.5000000  -0.0000000  -0.0370648), wk =   0.0069444
        k(  203) = (   0.5000000  -0.0000000  -0.0741297), wk =   0.0069444
        k(  204) = (   0.5000000  -0.0000000  -0.1111945), wk =   0.0069444
        k(  205) = (   0.5000000  -0.0000000   0.1482593), wk =   0.0034722
        k(  206) = (  -0.3333333  -0.4811252   0.0000000), wk =   0.0069444
        k(  207) = (   0.5833333  -0.0481125   0.0000000), wk =   0.0069444
        k(  208) = (  -0.3333333  -0.4811252  -0.0370648), wk =   0.0138889
        k(  209) = (   0.5833333  -0.0481125  -0.0370648), wk =   0.0138889
        k(  210) = (  -0.3333333  -0.4811252  -0.0741297), wk =   0.0138889
        k(  211) = (   0.5833333  -0.0481125  -0.0741297), wk =   0.0138889
        k(  212) = (  -0.3333333  -0.4811252  -0.1111945), wk =   0.0138889
        k(  213) = (   0.5833333  -0.0481125  -0.1111945), wk =   0.0138889
        k(  214) = (  -0.3333333  -0.4811252   0.1482593), wk =   0.0069444
        k(  215) = (   0.5833333  -0.0481125   0.1482593), wk =   0.0069444

                       cryst. coord.
        k(    1) = (   0.0000000   0.0000000   0.0000000), wk =   0.0017361
        k(    2) = (   0.0000000   0.0000000   0.1250000), wk =   0.0034722
        k(    3) = (   0.0000000   0.0000000   0.2500000), wk =   0.0034722
        k(    4) = (   0.0000000   0.0000000   0.3750000), wk =   0.0034722
        k(    5) = (   0.0000000   0.0000000  -0.5000000), wk =   0.0017361
        k(    6) = (   0.0000000   0.0833333   0.0000000), wk =   0.0034722
        k(    7) = (   0.0000000   0.0833333   0.1250000), wk =   0.0069444
        k(    8) = (   0.0000000   0.0833333   0.2500000), wk =   0.0069444
        k(    9) = (   0.0000000   0.0833333   0.3750000), wk =   0.0069444
        k(   10) = (   0.0000000   0.0833333  -0.5000000), wk =   0.0034722
        k(   11) = (   0.0000000   0.1666667   0.0000000), wk =   0.0034722
        k(   12) = (   0.0000000   0.1666667   0.1250000), wk =   0.0069444
        k(   13) = (   0.0000000   0.1666667   0.2500000), wk =   0.0069444
        k(   14) = (   0.0000000   0.1666667   0.3750000), wk =   0.0069444
        k(   15) = (   0.0000000   0.1666667  -0.5000000), wk =   0.0034722
        k(   16) = (   0.0000000   0.2500000   0.0000000), wk =   0.0034722
        k(   17) = (   0.0000000   0.2500000   0.1250000), wk =   0.0069444
        k(   18) = (   0.0000000   0.2500000   0.2500000), wk =   0.0069444
        k(   19) = (   0.0000000   0.2500000   0.3750000), wk =   0.0069444
        k(   20) = (   0.0000000   0.2500000  -0.5000000), wk =   0.0034722
        k(   21) = (   0.0000000   0.3333333   0.0000000), wk =   0.0034722
        k(   22) = (   0.0000000   0.3333333   0.1250000), wk =   0.0069444
        k(   23) = (   0.0000000   0.3333333   0.2500000), wk =   0.0069444
        k(   24) = (   0.0000000   0.3333333   0.3750000), wk =   0.0069444
        k(   25) = (   0.0000000   0.3333333  -0.5000000), wk =   0.0034722
        k(   26) = (   0.0000000   0.4166667   0.0000000), wk =   0.0034722
        k(   27) = (   0.0000000   0.4166667   0.1250000), wk =   0.0069444
        k(   28) = (   0.0000000   0.4166667   0.2500000), wk =   0.0069444
        k(   29) = (   0.0000000   0.4166667   0.3750000), wk =   0.0069444
        k(   30) = (   0.0000000   0.4166667  -0.5000000), wk =   0.0034722
        k(   31) = (   0.0000000  -0.5000000   0.0000000), wk =   0.0017361
        k(   32) = (   0.0000000  -0.5000000   0.1250000), wk =   0.0034722
        k(   33) = (   0.0000000  -0.5000000   0.2500000), wk =   0.0034722
        k(   34) = (   0.0000000  -0.5000000   0.3750000), wk =   0.0034722
        k(   35) = (   0.0000000  -0.5000000  -0.5000000), wk =   0.0017361
        k(   36) = (   0.0833333   0.0833333   0.0000000), wk =   0.0069444
        k(   37) = (   0.0833333   0.0833333   0.1250000), wk =   0.0138889
        k(   38) = (   0.0833333   0.0833333   0.2500000), wk =   0.0138889
        k(   39) = (   0.0833333   0.0833333   0.3750000), wk =   0.0138889
        k(   40) = (   0.0833333   0.0833333  -0.5000000), wk =   0.0069444
        k(   41) = (   0.0833333   0.1666667   0.0000000), wk =   0.0069444
        k(   42) = (   0.0833333   0.1666667   0.1250000), wk =   0.0138889
        k(   43) = (   0.0833333   0.1666667   0.2500000), wk =   0.0138889
        k(   44) = (   0.0833333   0.1666667   0.3750000), wk =   0.0138889
        k(   45) = (   0.0833333   0.1666667  -0.5000000), wk =   0.0069444
        k(   46) = (   0.0833333   0.2500000   0.0000000), wk =   0.0069444
        k(   47) = (   0.0833333   0.2500000   0.1250000), wk =   0.0138889
        k(   48) = (   0.0833333   0.2500000   0.2500000), wk =   0.0138889
        k(   49) = (   0.0833333   0.2500000   0.3750000), wk =   0.0138889
        k(   50) = (   0.0833333   0.2500000  -0.5000000), wk =   0.0069444
        k(   51) = (   0.0833333   0.3333333   0.0000000), wk =   0.0069444
        k(   52) = (   0.0833333   0.3333333   0.1250000), wk =   0.0138889
        k(   53) = (   0.0833333   0.3333333   0.2500000), wk =   0.0138889
        k(   54) = (   0.0833333   0.3333333   0.3750000), wk =   0.0138889
        k(   55) = (   0.0833333   0.3333333  -0.5000000), wk =   0.0069444
        k(   56) = (   0.0833333   0.4166667   0.0000000), wk =   0.0069444
        k(   57) = (   0.0833333   0.4166667   0.1250000), wk =   0.0138889
        k(   58) = (   0.0833333   0.4166667   0.2500000), wk =   0.0138889
        k(   59) = (   0.0833333   0.4166667   0.3750000), wk =   0.0138889
        k(   60) = (   0.0833333   0.4166667  -0.5000000), wk =   0.0069444
        k(   61) = (   0.1666667   0.1666667   0.0000000), wk =   0.0069444
        k(   62) = (   0.1666667   0.1666667   0.1250000), wk =   0.0138889
        k(   63) = (   0.1666667   0.1666667   0.2500000), wk =   0.0138889
        k(   64) = (   0.1666667   0.1666667   0.3750000), wk =   0.0138889
        k(   65) = (   0.1666667   0.1666667  -0.5000000), wk =   0.0069444
        k(   66) = (   0.1666667   0.2500000   0.0000000), wk =   0.0069444
        k(   67) = (   0.1666667   0.2500000   0.1250000), wk =   0.0138889
        k(   68) = (   0.1666667   0.2500000   0.2500000), wk =   0.0138889
        k(   69) = (   0.1666667   0.2500000   0.3750000), wk =   0.0138889
        k(   70) = (   0.1666667   0.2500000  -0.5000000), wk =   0.0069444
        k(   71) = (   0.1666667   0.3333333   0.0000000), wk =   0.0069444
        k(   72) = (   0.1666667   0.3333333   0.1250000), wk =   0.0138889
        k(   73) = (   0.1666667   0.3333333   0.2500000), wk =   0.0138889
        k(   74) = (   0.1666667   0.3333333   0.3750000), wk =   0.0138889
        k(   75) = (   0.1666667   0.3333333  -0.5000000), wk =   0.0069444
        k(   76) = (   0.1666667   0.4166667   0.0000000), wk =   0.0034722
        k(   77) = (   0.1666667   0.4166667   0.1250000), wk =   0.0069444
        k(   78) = (   0.1666667   0.4166667   0.2500000), wk =   0.0069444
        k(   79) = (   0.1666667   0.4166667   0.3750000), wk =   0.0069444
        k(   80) = (   0.1666667   0.4166667  -0.5000000), wk =   0.0034722
        k(   81) = (   0.2500000   0.2500000   0.0000000), wk =   0.0069444
        k(   82) = (   0.2500000   0.2500000   0.1250000), wk =   0.0138889
        k(   83) = (   0.2500000   0.2500000   0.2500000), wk =   0.0138889
        k(   84) = (   0.2500000   0.2500000   0.3750000), wk =   0.0138889
        k(   85) = (   0.2500000   0.2500000  -0.5000000), wk =   0.0069444
        k(   86) = (   0.2500000   0.3333333   0.0000000), wk =   0.0069444
        k(   87) = (   0.2500000   0.3333333   0.1250000), wk =   0.0138889
        k(   88) = (   0.2500000   0.3333333   0.2500000), wk =   0.0138889
        k(   89) = (   0.2500000   0.3333333   0.3750000), wk =   0.0138889
        k(   90) = (   0.2500000   0.3333333  -0.5000000), wk =   0.0069444
        k(   91) = (   0.3333333   0.3333333   0.0000000), wk =   0.0034722
        k(   92) = (   0.3333333   0.3333333   0.1250000), wk =   0.0069444
        k(   93) = (   0.3333333   0.3333333   0.2500000), wk =   0.0069444
        k(   94) = (   0.3333333   0.3333333   0.3750000), wk =   0.0069444
        k(   95) = (   0.3333333   0.3333333  -0.5000000), wk =   0.0034722
        k(   96) = (  -0.0833333  -0.0000000   0.0000000), wk =   0.0069444
        k(   97) = (  -0.0833333  -0.0000000  -0.1250000), wk =   0.0138889
        k(   98) = (  -0.0833333  -0.0000000  -0.2500000), wk =   0.0138889
        k(   99) = (  -0.0833333  -0.0000000  -0.3750000), wk =   0.0138889
        k(  100) = (  -0.0833333  -0.0000000   0.5000000), wk =   0.0069444
        k(  101) = (  -0.1666667  -0.0000000   0.0000000), wk =   0.0069444
        k(  102) = (  -0.1666667  -0.0000000  -0.1250000), wk =   0.0138889
        k(  103) = (  -0.1666667  -0.0000000  -0.2500000), wk =   0.0138889
        k(  104) = (  -0.1666667  -0.0000000  -0.3750000), wk =   0.0138889
        k(  105) = (  -0.1666667  -0.0000000   0.5000000), wk =   0.0069444
        k(  106) = (  -0.2500000   0.0000000   0.0000000), wk =   0.0069444
        k(  107) = (  -0.2500000   0.0000000  -0.1250000), wk =   0.0138889
        k(  108) = (  -0.2500000   0.0000000  -0.2500000), wk =   0.0138889
        k(  109) = (  -0.2500000   0.0000000  -0.3750000), wk =   0.0138889
        k(  110) = (  -0.2500000   0.0000000   0.5000000), wk =   0.0069444
        k(  111) = (  -0.3333333  -0.0000000   0.0000000), wk =   0.0069444
        k(  112) = (  -0.3333333  -0.0000000  -0.1250000), wk =   0.0138889
        k(  113) = (  -0.3333333  -0.0000000  -0.2500000), wk =   0.0138889
        k(  114) = (  -0.3333333  -0.0000000  -0.3750000), wk =   0.0138889
        k(  115) = (  -0.3333333  -0.0000000   0.5000000), wk =   0.0069444
        k(  116) = (  -0.4166667   0.0000000   0.0000000), wk =   0.0069444
        k(  117) = (  -0.4166667   0.0000000  -0.1250000), wk =   0.0138889
        k(  118) = (  -0.4166667   0.0000000  -0.2500000), wk =   0.0138889
        k(  119) = (  -0.4166667   0.0000000  -0.3750000), wk =   0.0138889
        k(  120) = (  -0.4166667   0.0000000   0.5000000), wk =   0.0069444
        k(  121) = (   0.5000000   0.0000000   0.0000000), wk =   0.0034722
        k(  122) = (   0.5000000   0.0000000  -0.1250000), wk =   0.0069444
        k(  123) = (   0.5000000   0.0000000  -0.2500000), wk =   0.0069444
        k(  124) = (   0.5000000   0.0000000  -0.3750000), wk =   0.0069444
        k(  125) = (   0.5000000   0.0000000   0.5000000), wk =   0.0034722
        k(  126) = (   0.1666667  -0.0833333   0.0000000), wk =   0.0034722
        k(  127) = (   0.1666667  -0.0833333  -0.1250000), wk =   0.0069444
        k(  128) = (   0.1666667  -0.0833333  -0.2500000), wk =   0.0069444
        k(  129) = (   0.1666667  -0.0833333  -0.3750000), wk =   0.0069444
        k(  130) = (   0.1666667  -0.0833333   0.5000000), wk =   0.0034722
        k(  131) = (  -0.1666667  -0.0833333   0.0000000), wk =   0.0069444
        k(  132) = (   0.2500000  -0.1666667   0.0000000), wk =   0.0069444
        k(  133) = (  -0.1666667  -0.0833333  -0.1250000), wk =   0.0138889
        k(  134) = (   0.2500000  -0.1666667  -0.1250000), wk =   0.0138889
        k(  135) = (  -0.1666667  -0.0833333  -0.2500000), wk =   0.0138889
        k(  136) = (   0.2500000  -0.1666667  -0.2500000), wk =   0.0138889
        k(  137) = (  -0.1666667  -0.0833333  -0.3750000), wk =   0.0138889
        k(  138) = (   0.2500000  -0.1666667  -0.3750000), wk =   0.0138889
        k(  139) = (  -0.1666667  -0.0833333   0.5000000), wk =   0.0069444
        k(  140) = (   0.2500000  -0.1666667   0.5000000), wk =   0.0069444
        k(  141) = (  -0.2500000  -0.0833333   0.0000000), wk =   0.0069444
        k(  142) = (   0.3333333  -0.2500000   0.0000000), wk =   0.0069444
        k(  143) = (  -0.2500000  -0.0833333  -0.1250000), wk =   0.0138889
        k(  144) = (   0.3333333  -0.2500000  -0.1250000), wk =   0.0138889
        k(  145) = (  -0.2500000  -0.0833333  -0.2500000), wk =   0.0138889
        k(  146) = (   0.3333333  -0.2500000  -0.2500000), wk =   0.0138889
        k(  147) = (  -0.2500000  -0.0833333  -0.3750000), wk =   0.0138889
        k(  148) = (   0.3333333  -0.2500000  -0.3750000), wk =   0.0138889
        k(  149) = (  -0.2500000  -0.0833333   0.5000000), wk =   0.0069444
        k(  150) = (   0.3333333  -0.2500000   0.5000000), wk =   0.0069444
        k(  151) = (  -0.3333333  -0.0833333   0.0000000), wk =   0.0069444
        k(  152) = (   0.4166667  -0.3333333   0.0000000), wk =   0.0069444
        k(  153) = (  -0.3333333  -0.0833333  -0.1250000), wk =   0.0138889
        k(  154) = (   0.4166667  -0.3333333  -0.1250000), wk =   0.0138889
        k(  155) = (  -0.3333333  -0.0833333  -0.2500000), wk =   0.0138889
        k(  156) = (   0.4166667  -0.3333333  -0.2500000), wk =   0.0138889
        k(  157) = (  -0.3333333  -0.0833333  -0.3750000), wk =   0.0138889
        k(  158) = (   0.4166667  -0.3333333  -0.3750000), wk =   0.0138889
        k(  159) = (  -0.3333333  -0.0833333   0.5000000), wk =   0.0069444
        k(  160) = (   0.4166667  -0.3333333   0.5000000), wk =   0.0069444
        k(  161) = (  -0.4166667  -0.0833333   0.0000000), wk =   0.0069444
        k(  162) = (   0.5000000  -0.4166667   0.0000000), wk =   0.0069444
        k(  163) = (  -0.4166667  -0.0833333  -0.1250000), wk =   0.0138889
        k(  164) = (   0.5000000  -0.4166667  -0.1250000), wk =   0.0138889
        k(  165) = (  -0.4166667  -0.0833333  -0.2500000), wk =   0.0138889
        k(  166) = (   0.5000000  -0.4166667  -0.2500000), wk =   0.0138889
        k(  167) = (  -0.4166667  -0.0833333  -0.3750000), wk =   0.0138889
        k(  168) = (   0.5000000  -0.4166667  -0.3750000), wk =   0.0138889
        k(  169) = (  -0.4166667  -0.0833333   0.5000000), wk =   0.0069444
        k(  170) = (   0.5000000  -0.4166667   0.5000000), wk =   0.0069444
        k(  171) = (   0.3333333  -0.1666667   0.0000000), wk =   0.0034722
        k(  172) = (   0.3333333  -0.1666667  -0.1250000), wk =   0.0069444
        k(  173) = (   0.3333333  -0.1666667  -0.2500000), wk =   0.0069444
        k(  174) = (   0.3333333  -0.1666667  -0.3750000), wk =   0.0069444
        k(  175) = (   0.3333333  -0.1666667   0.5000000), wk =   0.0034722
        k(  176) = (  -0.2500000  -0.1666667   0.0000000), wk =   0.0069444
        k(  177) = (   0.4166667  -0.2500000   0.0000000), wk =   0.0069444
        k(  178) = (  -0.2500000  -0.1666667  -0.1250000), wk =   0.0138889
        k(  179) = (   0.4166667  -0.2500000  -0.1250000), wk =   0.0138889
        k(  180) = (  -0.2500000  -0.1666667  -0.2500000), wk =   0.0138889
        k(  181) = (   0.4166667  -0.2500000  -0.2500000), wk =   0.0138889
        k(  182) = (  -0.2500000  -0.1666667  -0.3750000), wk =   0.0138889
        k(  183) = (   0.4166667  -0.2500000  -0.3750000), wk =   0.0138889
        k(  184) = (  -0.2500000  -0.1666667   0.5000000), wk =   0.0069444
        k(  185) = (   0.4166667  -0.2500000   0.5000000), wk =   0.0069444
        k(  186) = (  -0.3333333  -0.1666667   0.0000000), wk =   0.0069444
        k(  187) = (   0.5000000  -0.3333333   0.0000000), wk =   0.0069444
        k(  188) = (  -0.3333333  -0.1666667  -0.1250000), wk =   0.0138889
        k(  189) = (   0.5000000  -0.3333333  -0.1250000), wk =   0.0138889
        k(  190) = (  -0.3333333  -0.1666667  -0.2500000), wk =   0.0138889
        k(  191) = (   0.5000000  -0.3333333  -0.2500000), wk =   0.0138889
        k(  192) = (  -0.3333333  -0.1666667  -0.3750000), wk =   0.0138889
        k(  193) = (   0.5000000  -0.3333333  -0.3750000), wk =   0.0138889
        k(  194) = (  -0.3333333  -0.1666667   0.5000000), wk =   0.0069444
        k(  195) = (   0.5000000  -0.3333333   0.5000000), wk =   0.0069444
        k(  196) = (  -0.4166667  -0.1666667   0.0000000), wk =   0.0069444
        k(  197) = (  -0.4166667  -0.1666667  -0.1250000), wk =   0.0138889
        k(  198) = (  -0.4166667  -0.1666667  -0.2500000), wk =   0.0138889
        k(  199) = (  -0.4166667  -0.1666667  -0.3750000), wk =   0.0138889
        k(  200) = (  -0.4166667  -0.1666667   0.5000000), wk =   0.0069444
        k(  201) = (   0.5000000  -0.2500000   0.0000000), wk =   0.0034722
        k(  202) = (   0.5000000  -0.2500000  -0.1250000), wk =   0.0069444
        k(  203) = (   0.5000000  -0.2500000  -0.2500000), wk =   0.0069444
        k(  204) = (   0.5000000  -0.2500000  -0.3750000), wk =   0.0069444
        k(  205) = (   0.5000000  -0.2500000   0.5000000), wk =   0.0034722
        k(  206) = (  -0.3333333  -0.2500000   0.0000000), wk =   0.0069444
        k(  207) = (   0.5833333  -0.3333333   0.0000000), wk =   0.0069444
        k(  208) = (  -0.3333333  -0.2500000  -0.1250000), wk =   0.0138889
        k(  209) = (   0.5833333  -0.3333333  -0.1250000), wk =   0.0138889
        k(  210) = (  -0.3333333  -0.2500000  -0.2500000), wk =   0.0138889
        k(  211) = (   0.5833333  -0.3333333  -0.2500000), wk =   0.0138889
        k(  212) = (  -0.3333333  -0.2500000  -0.3750000), wk =   0.0138889
        k(  213) = (   0.5833333  -0.3333333  -0.3750000), wk =   0.0138889
        k(  214) = (  -0.3333333  -0.2500000   0.5000000), wk =   0.0069444
        k(  215) = (   0.5833333  -0.3333333   0.5000000), wk =   0.0069444

     Dense  grid:    34301 G-vectors     FFT dimensions: (  30,  30,  96)

     Smooth grid:    12031 G-vectors     FFT dimensions: (  20,  20,  72)

     Dynamical RAM for                 wfc:       0.28 MB

     Dynamical RAM for     wfc (w. buffer):      59.88 MB

     Dynamical RAM for           str. fact:       0.52 MB

     Dynamical RAM for           local pot:       0.00 MB

     Dynamical RAM for          nlocal pot:       0.74 MB

     Dynamical RAM for                qrad:       0.44 MB

     Dynamical RAM for          rho,v,vnew:       3.55 MB

     Dynamical RAM for               rhoin:       1.18 MB

     Dynamical RAM for            rho*nmix:       8.37 MB

     Dynamical RAM for           G-vectors:       2.05 MB

     Dynamical RAM for          h,s,v(r/c):       0.03 MB

     Dynamical RAM for          <psi|beta>:       0.01 MB

     Dynamical RAM for                 psi:       0.55 MB

     Dynamical RAM for                hpsi:       0.55 MB

     Dynamical RAM for                spsi:       0.55 MB

     Dynamical RAM for      wfcinit/wfcrot:       0.75 MB

     Dynamical RAM for           addusdens:      24.60 MB

     Dynamical RAM for          addusforce:      28.00 MB

     Dynamical RAM for         addusstress:      26.17 MB

     Estimated static dynamical RAM per process >      81.08 MB

     Estimated max dynamical RAM per process >     109.08 MB

     Check: negative core charge=   -0.000010

     Initial potential from superposition of free atoms

     starting charge   15.99983, renormalised to   16.00000
     Starting wfcs are   16 randomized atomic wfcs

     total cpu time spent up to now is       18.9 secs

     Self-consistent Calculation

     iteration #  1     ecut=    45.00 Ry     beta= 0.70
     Davidson diagonalization with overlap
     ethr =  1.00E-02,  avg # of iterations =  2.7

     total cpu time spent up to now is       40.6 secs

     total energy              =     -49.66231668 Ry
     estimated scf accuracy    <       0.37722202 Ry

     iteration #  2     ecut=    45.00 Ry     beta= 0.70
     Davidson diagonalization with overlap
     ethr =  2.36E-03,  avg # of iterations =  2.5

     total cpu time spent up to now is       52.7 secs

     total energy              =     -49.71348979 Ry
     estimated scf accuracy    <       0.00436717 Ry

     iteration #  3     ecut=    45.00 Ry     beta= 0.70
     Davidson diagonalization with overlap
     ethr =  2.73E-05,  avg # of iterations =  7.1

     total cpu time spent up to now is       70.7 secs

     total energy              =     -49.71386021 Ry
     estimated scf accuracy    <       0.00031230 Ry

     iteration #  4     ecut=    45.00 Ry     beta= 0.70
     Davidson diagonalization with overlap
     ethr =  1.95E-06,  avg # of iterations =  3.9

     total cpu time spent up to now is       83.6 secs

     total energy              =     -49.71387762 Ry
     estimated scf accuracy    <       0.00000201 Ry

     iteration #  5     ecut=    45.00 Ry     beta= 0.70
     Davidson diagonalization with overlap
     ethr =  1.25E-08,  avg # of iterations =  2.9

     total cpu time spent up to now is      107.4 secs

     total energy              =     -49.71387875 Ry
     estimated scf accuracy    <       0.00000010 Ry

     iteration #  6     ecut=    45.00 Ry     beta= 0.70
     Davidson diagonalization with overlap
     ethr =  6.09E-10,  avg # of iterations =  2.0

     total cpu time spent up to now is      122.2 secs

     total energy              =     -49.71387877 Ry
     estimated scf accuracy    <       0.00000003 Ry

     iteration #  7     ecut=    45.00 Ry     beta= 0.70
     Davidson diagonalization with overlap
     ethr =  1.58E-10,  avg # of iterations =  1.6

     total cpu time spent up to now is      133.8 secs

     End of self-consistent calculation

          k = 0.0000 0.0000 0.0000 (  1497 PWs)   bands (ev):

   -14.7002 -14.6549  -3.0622  -2.4982   1.7288   1.7302   1.7330   1.7345
     7.9711  13.0931  13.0986  13.0997

     occupation numbers 
     1.0000   1.0000   1.0000   1.0000   1.0000   1.0000   1.0000   1.0000
    -0.0000  -0.0000  -0.0000  -0.0000

          k = 0.0000 0.0000 0.0371 (  1491 PWs)   bands (ev):

   -14.6984 -14.6566  -3.0425  -2.5218   1.7288   1.7302   1.7331   1.7345
     8.0633  11.2438  13.0937  13.0991

     occupation numbers 
     1.0000   1.0000   1.0000   1.0000   1.0000   1.0000   1.0000   1.0000
    -0.0000  -0.0000  -0.0000  -0.0000

          k = 0.0000 0.0000 0.0741 (  1480 PWs)   bands (ev):

   -14.6935 -14.6616  -2.9859  -2.5879   1.7290   1.7301   1.7333   1.7343
     8.3337  10.6647  13.0978  13.0989

     occupation numbers 
     1.0000   1.0000   1.0000   1.0000   1.0000   1.0000   1.0000   1.0000
    -0.0000  -0.0000  -0.0000  -0.0000

          k = 0.0000 0.0000 0.1112 (  1456 PWs)   bands (ev):

   -14.6862 -14.6690  -2.8992  -2.6841   1.7293   1.7298   1.7335   1.7341
     8.7646   9.9834  13.0953  13.0981

     occupation numbers 
     1.0000   1.0000   1.0000   1.0000   1.0000   1.0000   1.0000   1.0000
    -0.0000  -0.0000  -0.0000  -0.0000

          k = 0.0000 0.0000-0.1483 (  1450 PWs)   bands (ev):

   -14.6776 -14.6776  -2.7936  -2.7936   1.7296   1.7296   1.7338   1.7338
     9.3280   9.3280  13.0964  13.0966

     occupation numbers 
     1.0000   1.0000   1.0000   1.0000   1.0000   1.0000   1.0000   1.0000
    -0.0000  -0.0000  -0.0000  -0.0000

          k = 0.0000 0.0962 0.0000 (  1493 PWs)   bands (ev):

   -14.5366 -14.4920  -2.8647  -2.3056   1.0798   1.0829   1.3957   1.3982
     8.1836  11.6852  13.1508  13.1757

     occupation numbers 
     1.0000   1.0000   1.0000   1.0000   1.0000   1.0000   1.0000   1.0000
    -0.0000  -0.0000  -0.0000  -0.0000

          k = 0.0000 0.0962 0.0371 (  1489 PWs)   bands (ev):

   -14.5349 -14.4937  -2.8453  -2.3289   1.0799   1.0828   1.3958   1.3981
     8.2753  11.4392  13.1551  13.1754

     occupation numbers 
     1.0000   1.0000   1.0000   1.0000   1.0000   1.0000   1.0000   1.0000
    -0.0000  -0.0000  -0.0000  -0.0000

          k = 0.0000 0.0962 0.0741 (  1489 PWs)   bands (ev):

   -14.5301 -14.4986  -2.7891  -2.3945   1.0802   1.0824   1.3961   1.3978
     8.5443  10.8628  13.1615  13.1741

     occupation numbers 
     1.0000   1.0000   1.0000   1.0000   1.0000   1.0000   1.0000   1.0000
    -0.0000  -0.0000  -0.0000  -0.0000

          k = 0.0000 0.0962 0.1112 (  1491 PWs)   bands (ev):

   -14.5229 -14.5059  -2.7030  -2.4898   1.0807   1.0819   1.3965   1.3974
     8.9729  10.1853  13.1662  13.1721

     occupation numbers 
     1.0000   1.0000   1.0000   1.0000   1.0000   1.0000   1.0000   1.0000
    -0.0000  -0.0000  -0.0000  -0.0000

          k = 0.0000 0.0962-0.1483 (  1486 PWs)   bands (ev):

   -14.5144 -14.5144  -2.5983  -2.5983   1.0813   1.0813   1.3969   1.3969
     9.5334   9.5334  13.1695  13.1695

     occupation numbers 
     1.0000   1.0000   1.0000   1.0000   1.0000   1.0000   1.0000   1.0000
    -0.0000  -0.0000  -0.0000  -0.0000

          k = 0.0000 0.1925 0.0000 (  1503 PWs)   bands (ev):

   -14.0479 -14.0049  -2.2773  -1.7332  -0.5535  -0.5468   0.6059   0.6095
     8.8215  12.2527  13.0753  13.1297

     occupation numbers 
     1.0000   1.0000   1.0000   1.0000   1.0000   1.0000   1.0000   1.0000
    -0.0000  -0.0000  -0.0000  -0.0000

          k = 0.0000 0.1925 0.0371 (  1501 PWs)   bands (ev):

   -14.0462 -14.0066  -2.2583  -1.7559  -0.5533  -0.5471   0.6060   0.6094
     8.9116  12.0109  13.0867  13.1291

     occupation numbers 
     1.0000   1.0000   1.0000   1.0000   1.0000   1.0000   1.0000   1.0000
    -0.0000  -0.0000  -0.0000  -0.0000

          k = 0.0000 0.1925 0.0741 (  1496 PWs)   bands (ev):

   -14.0416 -14.0113  -2.2036  -1.8195  -0.5525  -0.5478   0.6064   0.6090
     9.1758  11.4481  13.1009  13.1267

     occupation numbers 
     1.0000   1.0000   1.0000   1.0000   1.0000   1.0000   1.0000   1.0000
    -0.0000  -0.0000  -0.0000  -0.0000

          k = 0.0000 0.1925 0.1112 (  1502 PWs)   bands (ev):

   -14.0347 -14.0183  -2.1197  -1.9122  -0.5515  -0.5489   0.6070   0.6084
     9.5968  10.7857  13.1102  13.1227

     occupation numbers 
     1.0000   1.0000   1.0000   1.0000   1.0000   1.0000   1.0000   1.0000
    -0.0000  -0.0000  -0.0000  -0.0000

          k = 0.0000 0.1925-0.1483 (  1490 PWs)   bands (ev):

   -14.0265 -14.0265  -2.0178  -2.0178  -0.5502  -0.5502   0.6077   0.6077
    10.1469  10.1469  13.1172  13.1172

     occupation numbers 
     1.0000   1.0000   1.0000   1.0000   1.0000   1.0000   1.0000   1.0000
    -0.0000  -0.0000  -0.0000  -0.0000

          k = 0.0000 0.2887 0.0000 (  1497 PWs)   bands (ev):

   -13.2397 -13.1995  -2.6462  -2.6348  -1.3180  -0.8018  -0.2712  -0.2668
     9.8819  11.9184  12.0377  12.7865

     occupation numbers 
     1.0000   1.0000   1.0000   1.0000   1.0000   1.0000   1.0000   1.0000
    -0.0000  -0.0000  -0.0000  -0.0000

          k = 0.0000 0.2887 0.0371 (  1495 PWs)   bands (ev):

   -13.2382 -13.2011  -2.6458  -2.6352  -1.2999  -0.8232  -0.2710  -0.2669
     9.9677  11.9183  12.0272  12.7677

     occupation numbers 
     1.0000   1.0000   1.0000   1.0000   1.0000   1.0000   1.0000   1.0000
    -0.0000  -0.0000  -0.0000  -0.0000

          k = 0.0000 0.2887 0.0741 (  1502 PWs)   bands (ev):

   -13.2339 -13.2055  -2.6446  -2.6365  -1.2477  -0.8833  -0.2706  -0.2674
    10.2188  11.8845  12.0065  12.5407

     occupation numbers 
     1.0000   1.0000   1.0000   1.0000   1.0000   1.0000   1.0000   1.0000
    -0.0000  -0.0000  -0.0000  -0.0000

          k = 0.0000 0.2887 0.1112 (  1499 PWs)   bands (ev):

   -13.2274 -13.2120  -2.6427  -2.6383  -1.1679  -0.9710  -0.2698  -0.2681
    10.6151  11.6280  12.0194  12.1914

     occupation numbers 
     1.0000   1.0000   1.0000   1.0000   1.0000   1.0000   1.0000   1.0000
    -0.0000  -0.0000  -0.0000  -0.0000

          k = 0.0000 0.2887-0.1483 (  1508 PWs)   bands (ev):

   -13.2197 -13.2197  -2.6405  -2.6405  -1.0711  -1.0711  -0.2690  -0.2690
    11.1179  11.1179  12.0688  12.0689

     occupation numbers 
     1.0000   1.0000   1.0000   1.0000   1.0000   1.0000   1.0000   1.0000
    -0.0000  -0.0000  -0.0000  -0.0000

          k = 0.0000 0.3849 0.0000 (  1504 PWs)   bands (ev):

   -12.1243 -12.0879  -4.8433  -4.8267  -1.0025  -0.9977  -0.0333   0.4345
     9.5906   9.8065  11.3483  12.4541

     occupation numbers 
     1.0000   1.0000   1.0000   1.0000   1.0000   1.0000   1.0000   1.0000
    -0.0000  -0.0000  -0.0000  -0.0000

          k = 0.0000 0.3849 0.0371 (  1511 PWs)   bands (ev):

   -12.1229 -12.0893  -4.8426  -4.8274  -1.0024  -0.9978  -0.0167   0.4153
     9.5960   9.7959  11.4346  12.4545

     occupation numbers 
     1.0000   1.0000   1.0000   1.0000   1.0000   1.0000   1.0000   1.0000
    -0.0000  -0.0000  -0.0000  -0.0000

          k = 0.0000 0.3849 0.0741 (  1509 PWs)   bands (ev):

   -12.1190 -12.0933  -4.8409  -4.8292  -1.0018  -0.9984   0.0309   0.3612
     9.6132   9.7670  11.6826  12.4540

     occupation numbers 
     1.0000   1.0000   1.0000   1.0000   1.0000   1.0000   1.0000   1.0000
    -0.0000  -0.0000  -0.0000  -0.0000

          k = 0.0000 0.3849 0.1112 (  1508 PWs)   bands (ev):

   -12.1131 -12.0992  -4.8382  -4.8319  -1.0010  -0.9992   0.1036   0.2822
     9.6429   9.7265  12.0526  12.4432

     occupation numbers 
     1.0000   1.0000   1.0000   1.0000   1.0000   1.0000   1.0000   1.0000
    -0.0000  -0.0000  -0.0000  -0.0000

          k = 0.0000 0.3849-0.1483 (  1502 PWs)   bands (ev):

   -12.1062 -12.1062  -4.8350  -4.8350  -1.0001  -1.0001   0.1916   0.1916
     9.6826   9.6826  12.3710  12.3710

     occupation numbers 
     1.0000   1.0000   1.0000   1.0000   1.0000   1.0000   1.0000   1.0000
    -0.0000  -0.0000  -0.0000  -0.0000

          k = 0.0000 0.4811 0.0000 (  1508 PWs)   bands (ev):

   -10.7329 -10.7014  -6.9366  -6.9154  -1.4742  -1.4690   1.4283   1.7959
     7.4408   7.7131  12.2037  12.2609

     occupation numbers 
     1.0000   1.0000   1.0000   1.0000   1.0000   1.0000   1.0000   1.0000
    -0.0000  -0.0000  -0.0000  -0.0000

          k = 0.0000 0.4811 0.0371 (  1517 PWs)   bands (ev):

   -10.7318 -10.7026  -6.9358  -6.9162  -1.4740  -1.4692   1.4416   1.7813
     7.4492   7.7008  12.2063  12.2593

     occupation numbers 
     1.0000   1.0000   1.0000   1.0000   1.0000   1.0000   1.0000   1.0000
    -0.0000  -0.0000  -0.0000  -0.0000

          k = 0.0000 0.4811 0.0741 (  1510 PWs)   bands (ev):

   -10.7284 -10.7060  -6.9335  -6.9185  -1.4734  -1.4698   1.4799   1.7398
     7.4740   7.6666  12.2135  12.2542

     occupation numbers 
     1.0000   1.0000   1.0000   1.0000   1.0000   1.0000   1.0000   1.0000
    -0.0000  -0.0000  -0.0000  -0.0000

          k = 0.0000 0.4811 0.1112 (  1509 PWs)   bands (ev):

   -10.7233 -10.7112  -6.9300  -6.9219  -1.4726  -1.4706   1.5380   1.6785
     7.5135   7.6178  12.2237  12.2459

     occupation numbers 
     1.0000   1.0000   1.0000   1.0000   1.0000   1.0000   1.0000   1.0000
    -0.0000  -0.0000  -0.0000  -0.0000

          k = 0.0000 0.4811-0.1483 (  1500 PWs)   bands (ev):

   -10.7172 -10.7172  -6.9260  -6.9260  -1.4716  -1.4716   1.6076   1.6076
     7.5637   7.5637  12.2351  12.2351

     occupation numbers 
     1.0000   1.0000   1.0000   1.0000   1.0000   1.0000   1.0000   1.0000
    -0.0000  -0.0000  -0.0000  -0.0000

          k = 0.0000-0.5774 0.0000 (  1508 PWs)   bands (ev):

    -9.4714  -9.4565  -8.4270  -8.4151  -1.6361  -1.6309   2.3583   2.5311
     6.3741   6.6118  12.1214  12.1874

     occupation numbers 
     1.0000   1.0000   1.0000   1.0000   1.0000   1.0000   1.0000   1.0000
    -0.0000  -0.0000  -0.0000  -0.0000

          k = 0.0000-0.5774 0.0371 (  1520 PWs)   bands (ev):

    -9.4709  -9.4571  -8.4266  -8.4155  -1.6359  -1.6311   2.3653   2.5250
     6.3802   6.5998  12.1238  12.1849

     occupation numbers 
     1.0000   1.0000   1.0000   1.0000   1.0000   1.0000   1.0000   1.0000
    -0.0000  -0.0000  -0.0000  -0.0000

          k = 0.0000-0.5774 0.0741 (  1520 PWs)   bands (ev):

    -9.4692  -9.4586  -8.4254  -8.4169  -1.6354  -1.6317   2.3851   2.5075
     6.3989   6.5669  12.1310  12.1776

     occupation numbers 
     1.0000   1.0000   1.0000   1.0000   1.0000   1.0000   1.0000   1.0000
    -0.0000  -0.0000  -0.0000  -0.0000

          k = 0.0000-0.5774 0.1112 (  1516 PWs)   bands (ev):

    -9.4668  -9.4610  -8.4235  -8.4189  -1.6345  -1.6325   2.4143   2.4806
     6.4303   6.5212  12.1416  12.1669

     occupation numbers 
     1.0000   1.0000   1.0000   1.0000   1.0000   1.0000   1.0000   1.0000
    -0.0000  -0.0000  -0.0000  -0.0000

          k = 0.0000-0.5774-0.1483 (  1520 PWs)   bands (ev):

    -9.4639  -9.4639  -8.4212  -8.4212  -1.6335  -1.6335   2.4479   2.4479
     6.4728   6.4728  12.1542  12.1542

     occupation numbers 
     1.0000   1.0000   1.0000   1.0000   1.0000   1.0000   1.0000   1.0000
    -0.0000  -0.0000  -0.0000  -0.0000

          k = 0.0833 0.1443 0.0000 (  1505 PWs)   bands (ev):

   -14.2105 -14.1670  -2.4722  -1.9230   0.0500   0.0531   0.7211   0.7232
     8.6092  12.0697  13.4288  13.4794

     occupation numbers 
     1.0000   1.0000   1.0000   1.0000   1.0000   1.0000   1.0000   1.0000
    -0.0000  -0.0000  -0.0000  -0.0000

          k = 0.0833 0.1443 0.0371 (  1503 PWs)   bands (ev):

   -14.2088 -14.1687  -2.4531  -1.9459   0.0501   0.0530   0.7212   0.7231
     8.6999  11.8263  13.4388  13.4785

     occupation numbers 
     1.0000   1.0000   1.0000   1.0000   1.0000   1.0000   1.0000   1.0000
    -0.0000  -0.0000  -0.0000  -0.0000

          k = 0.0833 0.1443 0.0741 (  1502 PWs)   bands (ev):

   -14.2042 -14.1734  -2.3978  -2.0102   0.0504   0.0526   0.7214   0.7229
     8.9659  11.2572  13.4526  13.4762

     occupation numbers 
     1.0000   1.0000   1.0000   1.0000   1.0000   1.0000   1.0000   1.0000
    -0.0000  -0.0000  -0.0000  -0.0000

          k = 0.0833 0.1443 0.1112 (  1496 PWs)   bands (ev):

   -14.1972 -14.1805  -2.3132  -2.1037   0.0510   0.0521   0.7218   0.7226
     9.3898  10.5881  13.4619  13.4728

     occupation numbers 
     1.0000   1.0000   1.0000   1.0000   1.0000   1.0000   1.0000   1.0000
    -0.0000  -0.0000  -0.0000  -0.0000

          k = 0.0833 0.1443-0.1483 (  1500 PWs)   bands (ev):

   -14.1889 -14.1889  -2.2103  -2.2103   0.0516   0.0516   0.7222   0.7222
     9.9440   9.9440  13.4682  13.4682

     occupation numbers 
     1.0000   1.0000   1.0000   1.0000   1.0000   1.0000   1.0000   1.0000
    -0.0000  -0.0000  -0.0000  -0.0000

          k = 0.0833 0.2406 0.0000 (  1500 PWs)   bands (ev):

   -13.5620 -13.5208  -1.6978  -1.6564  -1.6490  -1.1697  -0.2732  -0.2689
     9.4602  12.6994  12.8143  13.0103

     occupation numbers 
     1.0000   1.0000   1.0000   1.0000   1.0000   1.0000   1.0000   1.0000
    -0.0000  -0.0000  -0.0000  -0.0000

          k = 0.0833 0.2406 0.0371 (  1505 PWs)   bands (ev):

   -13.5605 -13.5224  -1.6793  -1.6562  -1.6492  -1.1917  -0.2730  -0.2690
     9.5485  12.5287  12.8115  12.9460

     occupation numbers 
     1.0000   1.0000   1.0000   1.0000   1.0000   1.0000   1.0000   1.0000
    -0.0000  -0.0000  -0.0000  -0.0000

          k = 0.0833 0.2406 0.0741 (  1503 PWs)   bands (ev):

   -13.5560 -13.5269  -1.6554  -1.6501  -1.6259  -1.2533  -0.2726  -0.2695
     9.8073  12.0163  12.8185  12.9005

     occupation numbers 
     1.0000   1.0000   1.0000   1.0000   1.0000   1.0000   1.0000   1.0000
    -0.0000  -0.0000  -0.0000  -0.0000

          k = 0.0833 0.2406 0.1112 (  1504 PWs)   bands (ev):

   -13.5494 -13.5336  -1.6542  -1.6513  -1.5445  -1.3431  -0.2719  -0.2702
    10.2195  11.3789  12.8335  12.8750

     occupation numbers 
     1.0000   1.0000   1.0000   1.0000   1.0000   1.0000   1.0000   1.0000
    -0.0000  -0.0000  -0.0000  -0.0000

          k = 0.0833 0.2406-0.1483 (  1506 PWs)   bands (ev):

   -13.5415 -13.5415  -1.6527  -1.6527  -1.4455  -1.4455  -0.2710  -0.2710
    10.7571  10.7571  12.8530  12.8532

     occupation numbers 
     1.0000   1.0000   1.0000   1.0000   1.0000   1.0000   1.0000   1.0000
    -0.0000  -0.0000  -0.0000  -0.0000

          k = 0.0833 0.3368 0.0000 (  1514 PWs)   bands (ev):

   -12.6001 -12.5621  -3.7240  -3.7108  -1.1574  -1.1515  -0.5700  -0.0786
    10.6311  10.7298  10.7830  13.3094

     occupation numbers 
     1.0000   1.0000   1.0000   1.0000   1.0000   1.0000   1.0000   1.0000
    -0.0000  -0.0000  -0.0000  -0.0000

          k = 0.0833 0.3368 0.0371 (  1508 PWs)   bands (ev):

   -12.5987 -12.5635  -3.7235  -3.7113  -1.1572  -1.1517  -0.5526  -0.0989
    10.6218  10.7663  10.8396  13.2978

     occupation numbers 
     1.0000   1.0000   1.0000   1.0000   1.0000   1.0000   1.0000   1.0000
    -0.0000  -0.0000  -0.0000  -0.0000

          k = 0.0833 0.3368 0.0741 (  1506 PWs)   bands (ev):

   -12.5946 -12.5677  -3.7220  -3.7128  -1.1566  -1.1523  -0.5028  -0.1559
    10.6289  10.7491  11.0959  13.1312

     occupation numbers 
     1.0000   1.0000   1.0000   1.0000   1.0000   1.0000   1.0000   1.0000
    -0.0000  -0.0000  -0.0000  -0.0000

          k = 0.0833 0.3368 0.1112 (  1509 PWs)   bands (ev):

   -12.5885 -12.5739  -3.7199  -3.7149  -1.1556  -1.1533  -0.4267  -0.2392
    10.6530  10.7197  11.4931  12.5872

     occupation numbers 
     1.0000   1.0000   1.0000   1.0000   1.0000   1.0000   1.0000   1.0000
    -0.0000  -0.0000  -0.0000  -0.0000

          k = 0.0833 0.3368-0.1483 (  1504 PWs)   bands (ev):

   -12.5812 -12.5812  -3.7174  -3.7174  -1.1545  -1.1545  -0.3344  -0.3344
    10.6856  10.6856  12.0048  12.0050

     occupation numbers 
     1.0000   1.0000   1.0000   1.0000   1.0000   1.0000   1.0000   1.0000
    -0.0000  -0.0000  -0.0000  -0.0000

          k = 0.0833 0.4330 0.0000 (  1522 PWs)   bands (ev):

   -11.3436 -11.3098  -5.8404  -5.8220  -1.7909  -1.7841   0.8335   1.2587
     8.3981   8.6295  12.3877  13.0278

     occupation numbers 
     1.0000   1.0000   1.0000   1.0000   1.0000   1.0000   1.0000   1.0000
    -0.0000  -0.0000  -0.0000  -0.0000

          k = 0.0833 0.4330 0.0371 (  1520 PWs)   bands (ev):

   -11.3423 -11.3111  -5.8397  -5.8227  -1.7906  -1.7844   0.8487   1.2414
     8.4055   8.6194  12.4643  13.0295

     occupation numbers 
     1.0000   1.0000   1.0000   1.0000   1.0000   1.0000   1.0000   1.0000
    -0.0000  -0.0000  -0.0000  -0.0000

          k = 0.0833 0.4330 0.0741 (  1517 PWs)   bands (ev):

   -11.3387 -11.3148  -5.8377  -5.8247  -1.7899  -1.7851   0.8924   1.1927
     8.4272   8.5911  12.6784  13.0335

     occupation numbers 
     1.0000   1.0000   1.0000   1.0000   1.0000   1.0000   1.0000   1.0000
    -0.0000  -0.0000  -0.0000  -0.0000

          k = 0.0833 0.4330 0.1112 (  1515 PWs)   bands (ev):

   -11.3332 -11.3203  -5.8347  -5.8277  -1.7888  -1.7862   0.9588   1.1212
     8.4614   8.5503  12.9304  13.0346

     occupation numbers 
     1.0000   1.0000   1.0000   1.0000   1.0000   1.0000   1.0000   1.0000
    -0.0000  -0.0000  -0.0000  -0.0000

          k = 0.0833 0.4330-0.1483 (  1514 PWs)   bands (ev):

   -11.3268 -11.3268  -5.8312  -5.8312  -1.7875  -1.7875   1.0389   1.0389
     8.5045   8.5045  13.0194  13.0194

     occupation numbers 
     1.0000   1.0000   1.0000   1.0000   1.0000   1.0000   1.0000   1.0000
    -0.0000  -0.0000  -0.0000  -0.0000

          k = 0.0833 0.5292 0.0000 (  1524 PWs)   bands (ev):

    -9.8691  -9.8420  -7.7733  -7.7520  -2.1186  -2.1115   2.2091   2.4750
     6.6424   6.8814  12.8513  12.9262

     occupation numbers 
     1.0000   1.0000   1.0000   1.0000   1.0000   1.0000   1.0000   1.0000
    -0.0000  -0.0000  -0.0000  -0.0000

          k = 0.0833 0.5292 0.0371 (  1517 PWs)   bands (ev):

    -9.8681  -9.8431  -7.7725  -7.7528  -2.1183  -2.1117   2.2192   2.4649
     6.6493   6.8701  12.8542  12.9234

     occupation numbers 
     1.0000   1.0000   1.0000   1.0000   1.0000   1.0000   1.0000   1.0000
    -0.0000  -0.0000  -0.0000  -0.0000

          k = 0.0833 0.5292 0.0741 (  1515 PWs)   bands (ev):

    -9.8652  -9.8460  -7.7702  -7.7551  -2.1176  -2.1125   2.2479   2.4360
     6.6698   6.8389  12.8623  12.9153

     occupation numbers 
     1.0000   1.0000   1.0000   1.0000   1.0000   1.0000   1.0000   1.0000
    -0.0000  -0.0000  -0.0000  -0.0000

          k = 0.0833 0.5292 0.1112 (  1520 PWs)   bands (ev):

    -9.8608  -9.8504  -7.7668  -7.7586  -2.1164  -2.1137   2.2910   2.3928
     6.7033   6.7949  12.8745  12.9031

     occupation numbers 
     1.0000   1.0000   1.0000   1.0000   1.0000   1.0000   1.0000   1.0000
    -0.0000  -0.0000  -0.0000  -0.0000

          k = 0.0833 0.5292-0.1483 (  1524 PWs)   bands (ev):

    -9.8556  -9.8556  -7.7627  -7.7627  -2.1150  -2.1150   2.3419   2.3419
     6.7469   6.7469  12.8888  12.8888

     occupation numbers 
     1.0000   1.0000   1.0000   1.0000   1.0000   1.0000   1.0000   1.0000
    -0.0000  -0.0000  -0.0000  -0.0000

          k = 0.1667 0.2887 0.0000 (  1509 PWs)   bands (ev):

   -12.7598 -12.7212  -2.9827  -2.9767  -1.6282  -1.6238  -0.7514  -0.2526
    10.5221  11.0959  11.1964  13.6817

     occupation numbers 
     1.0000   1.0000   1.0000   1.0000   1.0000   1.0000   1.0000   1.0000
    -0.0000  -0.0000  -0.0000  -0.0000

          k = 0.1667 0.2887 0.0371 (  1505 PWs)   bands (ev):

   -12.7583 -12.7227  -2.9825  -2.9769  -1.6280  -1.6240  -0.7339  -0.2732
    10.6067  11.0997  11.1926  13.4689

     occupation numbers 
     1.0000   1.0000   1.0000   1.0000   1.0000   1.0000   1.0000   1.0000
    -0.0000  -0.0000  -0.0000  -0.0000

          k = 0.1667 0.2887 0.0741 (  1516 PWs)   bands (ev):

   -12.7542 -12.7269  -2.9818  -2.9776  -1.6276  -1.6245  -0.6833  -0.3312
    10.8548  11.1105  11.1818  12.9635

     occupation numbers 
     1.0000   1.0000   1.0000   1.0000   1.0000   1.0000   1.0000   1.0000
    -0.0000  -0.0000  -0.0000  -0.0000

          k = 0.1667 0.2887 0.1112 (  1509 PWs)   bands (ev):

   -12.7480 -12.7332  -2.9808  -2.9785  -1.6269  -1.6252  -0.6061  -0.4157
    11.1267  11.1638  11.2514  12.3569

     occupation numbers 
     1.0000   1.0000   1.0000   1.0000   1.0000   1.0000   1.0000   1.0000
    -0.0000  -0.0000  -0.0000  -0.0000

          k = 0.1667 0.2887-0.1483 (  1518 PWs)   bands (ev):

   -12.7406 -12.7406  -2.9797  -2.9797  -1.6260  -1.6260  -0.5125  -0.5125
    11.1457  11.1457  11.7644  11.7644

     occupation numbers 
     1.0000   1.0000   1.0000   1.0000   1.0000   1.0000   1.0000   1.0000
    -0.0000  -0.0000  -0.0000  -0.0000

          k = 0.1667 0.3849 0.0000 (  1517 PWs)   bands (ev):

   -11.6553 -11.6204  -4.7064  -4.6938  -2.6823  -2.6742   0.5181   0.9687
     9.1400   9.2835  11.9937  14.9247

     occupation numbers 
     1.0000   1.0000   1.0000   1.0000   1.0000   1.0000   1.0000   1.0000
    -0.0000  -0.0000  -0.0000  -0.0000

          k = 0.1667 0.3849 0.0371 (  1515 PWs)   bands (ev):

   -11.6540 -11.6217  -4.7059  -4.6943  -2.6820  -2.6745   0.5341   0.9502
     9.1451   9.2777  12.0719  14.5751

     occupation numbers 
     1.0000   1.0000   1.0000   1.0000   1.0000   1.0000   1.0000   1.0000
    -0.0000  -0.0000  -0.0000  -0.0000

          k = 0.1667 0.3849 0.0741 (  1515 PWs)   bands (ev):

   -11.6502 -11.6255  -4.7046  -4.6956  -2.6812  -2.6754   0.5801   0.8983
     9.1598   9.2615  12.3003  14.1626

     occupation numbers 
     1.0000   1.0000   1.0000   1.0000   1.0000   1.0000   1.0000   1.0000
    -0.0000  -0.0000  -0.0000  -0.0000

          k = 0.1667 0.3849 0.1112 (  1522 PWs)   bands (ev):

   -11.6446 -11.6313  -4.7025  -4.6977  -2.6798  -2.6767   0.6502   0.8223
     9.1824   9.2376  12.6609  13.6464

     occupation numbers 
     1.0000   1.0000   1.0000   1.0000   1.0000   1.0000   1.0000   1.0000
    -0.0000  -0.0000  -0.0000  -0.0000

          k = 0.1667 0.3849-0.1483 (  1524 PWs)   bands (ev):

   -11.6380 -11.6380  -4.7001  -4.7001  -2.6783  -2.6783   0.7350   0.7350
     9.2097   9.2097  13.1241  13.1241

     occupation numbers 
     1.0000   1.0000   1.0000   1.0000   1.0000   1.0000   1.0000   1.0000
    -0.0000  -0.0000  -0.0000  -0.0000

          k = 0.1667 0.4811 0.0000 (  1522 PWs)   bands (ev):

   -10.2839 -10.2538  -6.6108  -6.5919  -3.2583  -3.2479   1.9803   2.3389
     7.2168   7.4107  13.8407  14.7160

     occupation numbers 
     1.0000   1.0000   1.0000   1.0000   1.0000   1.0000   1.0000   1.0000
    -0.0000  -0.0000  -0.0000  -0.0000

          k = 0.1667 0.4811 0.0371 (  1521 PWs)   bands (ev):

   -10.2827 -10.2549  -6.6101  -6.5926  -3.2579  -3.2483   1.9934   2.3246
     7.2234   7.4025  13.9038  14.7183

     occupation numbers 
     1.0000   1.0000   1.0000   1.0000   1.0000   1.0000   1.0000   1.0000
    -0.0000  -0.0000  -0.0000  -0.0000

          k = 0.1667 0.4811 0.0741 (  1525 PWs)   bands (ev):

   -10.2795 -10.2582  -6.6080  -6.5947  -3.2568  -3.2494   2.0307   2.2841
     7.2424   7.3797  14.0848  14.7228

     occupation numbers 
     1.0000   1.0000   1.0000   1.0000   1.0000   1.0000   1.0000   1.0000
    -0.0000  -0.0000  -0.0000  -0.0000

          k = 0.1667 0.4811 0.1112 (  1522 PWs)   bands (ev):

   -10.2746 -10.2631  -6.6050  -6.5978  -3.2551  -3.2511   2.0873   2.2244
     7.2719   7.3463  14.3543  14.7172

     occupation numbers 
     1.0000   1.0000   1.0000   1.0000   1.0000   1.0000   1.0000   1.0000
    -0.0000  -0.0000  -0.0000  -0.0000

          k = 0.1667 0.4811-0.1483 (  1520 PWs)   bands (ev):

   -10.2689 -10.2689  -6.6014  -6.6014  -3.2531  -3.2531   2.1552   2.1552
     7.3083   7.3083  14.6249  14.6250

     occupation numbers 
     1.0000   1.0000   1.0000   1.0000   1.0000   1.0000   1.0000   1.0000
    -0.0000  -0.0000  -0.0000  -0.0000

          k = 0.1667 0.5774 0.0000 (  1527 PWs)   bands (ev):

    -9.0513  -9.0371  -8.0308  -8.0203  -3.4432  -3.4322   2.9554   3.1246
     6.1941   6.3247  14.6171  14.7561

     occupation numbers 
     1.0000   1.0000   1.0000   1.0000   1.0000   1.0000   1.0000   1.0000
    -0.0000  -0.0000  -0.0000  -0.0000

          k = 0.1667 0.5774 0.0371 (  1523 PWs)   bands (ev):

    -9.0507  -9.0376  -8.0305  -8.0207  -3.4427  -3.4326   2.9624   3.1188
     6.1970   6.3178  14.6218  14.7499

     occupation numbers 
     1.0000   1.0000   1.0000   1.0000   1.0000   1.0000   1.0000   1.0000
    -0.0000  -0.0000  -0.0000  -0.0000

          k = 0.1667 0.5774 0.0741 (  1526 PWs)   bands (ev):

    -9.0492  -9.0391  -8.0294  -8.0219  -3.4416  -3.4338   2.9819   3.1017
     6.2063   6.2991  14.6351  14.7327

     occupation numbers 
     1.0000   1.0000   1.0000   1.0000   1.0000   1.0000   1.0000   1.0000
    -0.0000  -0.0000  -0.0000  -0.0000

          k = 0.1667 0.5774 0.1112 (  1533 PWs)   bands (ev):

    -9.0469  -9.0414  -8.0277  -8.0237  -3.4398  -3.4356   3.0105   3.0755
     6.2228   6.2731  14.6556  14.7081

     occupation numbers 
     1.0000   1.0000   1.0000   1.0000   1.0000   1.0000   1.0000   1.0000
    -0.0000  -0.0000  -0.0000  -0.0000

          k = 0.1667 0.5774-0.1483 (  1532 PWs)   bands (ev):

    -9.0441  -9.0441  -8.0257  -8.0257  -3.4377  -3.4377   3.0435   3.0435
     6.2460   6.2460  14.6809  14.6809

     occupation numbers 
     1.0000   1.0000   1.0000   1.0000   1.0000   1.0000   1.0000   1.0000
    -0.0000  -0.0000  -0.0000  -0.0000

          k = 0.2500 0.4330 0.0000 (  1525 PWs)   bands (ev):

   -10.4310 -10.4002  -5.7386  -5.7295  -4.1560  -4.1490   1.8837   2.2710
     7.5364   7.6727  13.6410  15.3844

     occupation numbers 
     1.0000   1.0000   1.0000   1.0000   1.0000   1.0000   1.0000   1.0000
    -0.0000  -0.0000  -0.0000  -0.0000

          k = 0.2500 0.4330 0.0371 (  1525 PWs)   bands (ev):

   -10.4299 -10.4014  -5.7383  -5.7298  -4.1558  -4.1493   1.8976   2.2554
     7.5416   7.6675  13.7003  15.3020

     occupation numbers 
     1.0000   1.0000   1.0000   1.0000   1.0000   1.0000   1.0000   1.0000
    -0.0000  -0.0000  -0.0000  -0.0000

          k = 0.2500 0.4330 0.0741 (  1530 PWs)   bands (ev):

   -10.4265 -10.4048  -5.7373  -5.7308  -4.1550  -4.1501   1.9376   2.2112
     7.5563   7.6526  13.8707  15.0829

     occupation numbers 
     1.0000   1.0000   1.0000   1.0000   1.0000   1.0000   1.0000   1.0000
    -0.0000  -0.0000  -0.0000  -0.0000

          k = 0.2500 0.4330 0.1112 (  1531 PWs)   bands (ev):

   -10.4216 -10.4098  -5.7358  -5.7323  -4.1539  -4.1512   1.9983   2.1463
     7.5783   7.6304  14.1312  14.7813

     occupation numbers 
     1.0000   1.0000   1.0000   1.0000   1.0000   1.0000   1.0000   1.0000
    -0.0000  -0.0000  -0.0000  -0.0000

          k = 0.2500 0.4330-0.1483 (  1534 PWs)   bands (ev):

   -10.4157 -10.4157  -5.7340  -5.7340  -4.1526  -4.1526   2.0714   2.0714
     7.6043   7.6043  14.4486  14.4486

     occupation numbers 
     1.0000   1.0000   1.0000   1.0000   1.0000   1.0000   1.0000   1.0000
    -0.0000  -0.0000  -0.0000  -0.0000

          k = 0.2500 0.5292 0.0000 (  1531 PWs)   bands (ev):

    -9.0135  -8.9892  -7.1553  -7.1396  -4.8635  -4.8518   3.3194   3.5835
     6.0301   6.1604  15.5760  15.6363

     occupation numbers 
     1.0000   1.0000   1.0000   1.0000   1.0000   1.0000   1.0000   1.0001
    -0.0001  -0.0000  -0.0000  -0.0000

          k = 0.2500 0.5292 0.0371 (  1532 PWs)   bands (ev):

    -9.0125  -8.9901  -7.1547  -7.1402  -4.8631  -4.8522   3.3293   3.5734
     6.0345   6.1549  15.5082  15.5976

     occupation numbers 
     1.0000   1.0000   1.0000   1.0000   1.0000   1.0000   1.0000   1.0001
    -0.0001  -0.0000  -0.0000  -0.0000

          k = 0.2500 0.5292 0.0741 (  1531 PWs)   bands (ev):

    -9.0099  -8.9928  -7.1530  -7.1419  -4.8618  -4.8535   3.3577   3.5446
     6.0472   6.1395  15.4054  15.4977

     occupation numbers 
     1.0000   1.0000   1.0000   1.0000   1.0000   1.0000   1.0000   1.0001
    -0.0001  -0.0000  -0.0000  -0.0000

          k = 0.2500 0.5292 0.1112 (  1536 PWs)   bands (ev):

    -9.0060  -8.9967  -7.1505  -7.1445  -4.8599  -4.8554   3.4003   3.5015
     6.0670   6.1169  15.3429  15.3984

     occupation numbers 
     1.0000   1.0000   1.0000   1.0000   1.0000   1.0000   1.0000   1.0000
    -0.0001  -0.0000  -0.0000  -0.0000

          k = 0.2500 0.5292-0.1483 (  1544 PWs)   bands (ev):

    -9.0014  -9.0014  -7.1475  -7.1475  -4.8577  -4.8577   3.4508   3.4508
     6.0914   6.0914  15.3409  15.3409

     occupation numbers 
     1.0000   1.0000   1.0000   1.0000   1.0000   1.0000   1.0000   1.0000
    -0.0000  -0.0000  -0.0000  -0.0000

          k = 0.3333 0.5774 0.0000 (  1527 PWs)   bands (ev):

    -7.8036  -7.7913  -7.7912  -7.7794  -5.7441  -5.7441   4.6447   4.7990
     4.7991   4.9615  15.4979  15.4985

     occupation numbers 
     1.0000   1.0000   1.0000   1.0000   1.0000   1.0000   0.7982   0.5030
     0.5028   0.1932  -0.0000  -0.0000

          k = 0.3333 0.5774 0.0371 (  1530 PWs)   bands (ev):

    -7.8027  -7.7913  -7.7912  -7.7803  -5.7441  -5.7441   4.6562   4.7992
     4.7993   4.9488  15.4431  15.4436

     occupation numbers 
     1.0000   1.0000   1.0000   1.0000   1.0000   1.0000   0.7793   0.5024
     0.5022   0.2137  -0.0000  -0.0000

          k = 0.3333 0.5774 0.0741 (  1530 PWs)   bands (ev):

    -7.8001  -7.7913  -7.7911  -7.7829  -5.7441  -5.7441   4.6892   4.7999
     4.8000   4.9130  15.3296  15.3300

     occupation numbers 
     1.0000   1.0000   1.0000   1.0000   1.0000   1.0000   0.7214   0.5010
     0.5009   0.2761  -0.0000  -0.0000

          k = 0.3333 0.5774 0.1112 (  1551 PWs)   bands (ev):

    -7.7963  -7.7914  -7.7911  -7.7869  -5.7442  -5.7442   4.7390   4.8005
     4.8006   4.8602  15.2341  15.2343

     occupation numbers 
     1.0000   1.0000   1.0000   1.0000   1.0000   1.0000   0.6257   0.4998
     0.4997   0.3776  -0.0000  -0.0000

          k = 0.3333 0.5774-0.1483 (  1542 PWs)   bands (ev):

    -7.7922  -7.7922  -7.7907  -7.7907  -5.7442  -5.7442   4.7986   4.7986
     4.8012   4.8012  15.1984  15.1984

     occupation numbers 
     1.0000   1.0000   1.0000   1.0000   1.0000   1.0000   0.5038   0.5038
     0.4983   0.4983  -0.0000  -0.0000

          k =-0.0833-0.0481 0.0000 (  1493 PWs)   bands (ev):

   -14.5366 -14.4920  -2.8648  -2.3056   1.0826   1.0857   1.3928   1.3953
     8.1836  11.6852  13.1473  13.1722

     occupation numbers 
     1.0000   1.0000   1.0000   1.0000   1.0000   1.0000   1.0000   1.0000
    -0.0000  -0.0000  -0.0000  -0.0000

          k =-0.0833-0.0481-0.0371 (  1489 PWs)   bands (ev):

   -14.5349 -14.4937  -2.8453  -2.3289   1.0827   1.0856   1.3929   1.3952
     8.2753  11.4391  13.1517  13.1719

     occupation numbers 
     1.0000   1.0000   1.0000   1.0000   1.0000   1.0000   1.0000   1.0000
    -0.0000  -0.0000  -0.0000  -0.0000

          k =-0.0833-0.0481-0.0741 (  1489 PWs)   bands (ev):

   -14.5301 -14.4986  -2.7891  -2.3945   1.0831   1.0853   1.3932   1.3949
     8.5443  10.8628  13.1581  13.1707

     occupation numbers 
     1.0000   1.0000   1.0000   1.0000   1.0000   1.0000   1.0000   1.0000
    -0.0000  -0.0000  -0.0000  -0.0000

          k =-0.0833-0.0481-0.1112 (  1491 PWs)   bands (ev):

   -14.5229 -14.5059  -2.7031  -2.4898   1.0836   1.0848   1.3935   1.3945
     8.9729  10.1853  13.1627  13.1686

     occupation numbers 
     1.0000   1.0000   1.0000   1.0000   1.0000   1.0000   1.0000   1.0000
    -0.0000  -0.0000  -0.0000  -0.0000

          k =-0.0833-0.0481 0.1483 (  1486 PWs)   bands (ev):

   -14.5144 -14.5144  -2.5983  -2.5983   1.0842   1.0842   1.3940   1.3940
     9.5334   9.5334  13.1661  13.1661

     occupation numbers 
     1.0000   1.0000   1.0000   1.0000   1.0000   1.0000   1.0000   1.0000
    -0.0000  -0.0000  -0.0000  -0.0000

          k =-0.1667-0.0962 0.0000 (  1503 PWs)   bands (ev):

   -14.0479 -14.0049  -2.2774  -1.7333  -0.5514  -0.5447   0.6035   0.6072
     8.8214  12.2525  13.0731  13.1274

     occupation numbers 
     1.0000   1.0000   1.0000   1.0000   1.0000   1.0000   1.0000   1.0000
    -0.0000  -0.0000  -0.0000  -0.0000

          k =-0.1667-0.0962-0.0371 (  1501 PWs)   bands (ev):

   -14.0462 -14.0066  -2.2584  -1.7560  -0.5511  -0.5449   0.6036   0.6070
     8.9115  12.0107  13.0845  13.1269

     occupation numbers 
     1.0000   1.0000   1.0000   1.0000   1.0000   1.0000   1.0000   1.0000
    -0.0000  -0.0000  -0.0000  -0.0000

          k =-0.1667-0.0962-0.0741 (  1496 PWs)   bands (ev):

   -14.0416 -14.0112  -2.2036  -1.8196  -0.5504  -0.5457   0.6040   0.6066
     9.1758  11.4480  13.0987  13.1245

     occupation numbers 
     1.0000   1.0000   1.0000   1.0000   1.0000   1.0000   1.0000   1.0000
    -0.0000  -0.0000  -0.0000  -0.0000

          k =-0.1667-0.0962-0.1112 (  1502 PWs)   bands (ev):

   -14.0347 -14.0183  -2.1198  -1.9122  -0.5493  -0.5468   0.6046   0.6060
     9.5968  10.7857  13.1081  13.1205

     occupation numbers 
     1.0000   1.0000   1.0000   1.0000   1.0000   1.0000   1.0000   1.0000
    -0.0000  -0.0000  -0.0000  -0.0000

          k =-0.1667-0.0962 0.1483 (  1490 PWs)   bands (ev):

   -14.0265 -14.0265  -2.0178  -2.0178  -0.5480  -0.5480   0.6054   0.6054
    10.1469  10.1469  13.1150  13.1150

     occupation numbers 
     1.0000   1.0000   1.0000   1.0000   1.0000   1.0000   1.0000   1.0000
    -0.0000  -0.0000  -0.0000  -0.0000

          k =-0.2500-0.1443 0.0000 (  1497 PWs)   bands (ev):

   -13.2396 -13.1995  -2.6447  -2.6332  -1.3181  -0.8019  -0.2731  -0.2687
     9.8819  11.9191  12.0384  12.7843

     occupation numbers 
     1.0000   1.0000   1.0000   1.0000   1.0000   1.0000   1.0000   1.0000
    -0.0000  -0.0000  -0.0000  -0.0000

          k =-0.2500-0.1443-0.0371 (  1495 PWs)   bands (ev):

   -13.2381 -13.2010  -2.6442  -2.6336  -1.3000  -0.8233  -0.2730  -0.2689
     9.9677  11.9189  12.0279  12.7673

     occupation numbers 
     1.0000   1.0000   1.0000   1.0000   1.0000   1.0000   1.0000   1.0000
    -0.0000  -0.0000  -0.0000  -0.0000

          k =-0.2500-0.1443-0.0741 (  1502 PWs)   bands (ev):

   -13.2338 -13.2054  -2.6430  -2.6349  -1.2479  -0.8835  -0.2725  -0.2694
    10.2188  11.8848  12.0074  12.5409

     occupation numbers 
[...]
     9.1612   9.2628  12.3003  14.1621

     occupation numbers 
     1.0000   1.0000   1.0000   1.0000   1.0000   1.0000   1.0000   1.0000
    -0.0000  -0.0000  -0.0000  -0.0000

          k =-0.2500-0.3368-0.1112 (  1522 PWs)   bands (ev):

   -11.6446 -11.6313  -4.7017  -4.6969  -2.6808  -2.6776   0.6501   0.8221
     9.1829   9.2380  12.6609  13.6465

     occupation numbers 
     1.0000   1.0000   1.0000   1.0000   1.0000   1.0000   1.0000   1.0000
    -0.0000  -0.0000  -0.0000  -0.0000

          k = 0.4167-0.0481-0.1112 (  1522 PWs)   bands (ev):

   -11.6446 -11.6312  -4.7009  -4.6960  -2.6818  -2.6786   0.6498   0.8218
     9.1838   9.2389  12.6608  13.6461

     occupation numbers 
     1.0000   1.0000   1.0000   1.0000   1.0000   1.0000   1.0000   1.0000
    -0.0000  -0.0000  -0.0000  -0.0000

          k =-0.2500-0.3368 0.1483 (  1524 PWs)   bands (ev):

   -11.6380 -11.6380  -4.6993  -4.6993  -2.6792  -2.6792   0.7349   0.7349
     9.2101   9.2101  13.1241  13.1241

     occupation numbers 
     1.0000   1.0000   1.0000   1.0000   1.0000   1.0000   1.0000   1.0000
    -0.0000  -0.0000  -0.0000  -0.0000

          k = 0.4167-0.0481 0.1483 (  1524 PWs)   bands (ev):

   -11.6379 -11.6379  -4.6985  -4.6985  -2.6802  -2.6802   0.7346   0.7346
     9.2110   9.2110  13.1239  13.1239

     occupation numbers 
     1.0000   1.0000   1.0000   1.0000   1.0000   1.0000   1.0000   1.0000
    -0.0000  -0.0000  -0.0000  -0.0000

          k =-0.3333-0.3849 0.0000 (  1522 PWs)   bands (ev):

   -10.2839 -10.2539  -6.6098  -6.5909  -3.2595  -3.2491   1.9798   2.3383
     7.2181   7.4118  13.8407  14.7152

     occupation numbers 
     1.0000   1.0000   1.0000   1.0000   1.0000   1.0000   1.0000   1.0000
    -0.0000  -0.0000  -0.0000  -0.0000

          k = 0.5000-0.0962 0.0000 (  1522 PWs)   bands (ev):

   -10.2839 -10.2538  -6.6096  -6.5907  -3.2598  -3.2494   1.9795   2.3380
     7.2187   7.4125  13.8406  14.7149

     occupation numbers 
     1.0000   1.0000   1.0000   1.0000   1.0000   1.0000   1.0000   1.0000
    -0.0000  -0.0000  -0.0000  -0.0000

          k =-0.3333-0.3849-0.0371 (  1521 PWs)   bands (ev):

   -10.2828 -10.2550  -6.6091  -6.5916  -3.2591  -3.2495   1.9928   2.3240
     7.2246   7.4036  13.9039  14.7176

     occupation numbers 
     1.0000   1.0000   1.0000   1.0000   1.0000   1.0000   1.0000   1.0000
    -0.0000  -0.0000  -0.0000  -0.0000

          k = 0.5000-0.0962-0.0371 (  1521 PWs)   bands (ev):

   -10.2827 -10.2550  -6.6088  -6.5914  -3.2594  -3.2498   1.9925   2.3236
     7.2252   7.4043  13.9038  14.7172

     occupation numbers 
     1.0000   1.0000   1.0000   1.0000   1.0000   1.0000   1.0000   1.0000
    -0.0000  -0.0000  -0.0000  -0.0000

          k =-0.3333-0.3849-0.0741 (  1525 PWs)   bands (ev):

   -10.2796 -10.2583  -6.6071  -6.5937  -3.2580  -3.2506   2.0301   2.2835
     7.2436   7.3808  14.0849  14.7222

     occupation numbers 
     1.0000   1.0000   1.0000   1.0000   1.0000   1.0000   1.0000   1.0000
    -0.0000  -0.0000  -0.0000  -0.0000

          k = 0.5000-0.0962-0.0741 (  1525 PWs)   bands (ev):

   -10.2795 -10.2582  -6.6068  -6.5934  -3.2583  -3.2509   2.0298   2.2832
     7.2442   7.3815  14.0847  14.7217

     occupation numbers 
     1.0000   1.0000   1.0000   1.0000   1.0000   1.0000   1.0000   1.0000
    -0.0000  -0.0000  -0.0000  -0.0000

          k =-0.3333-0.3849-0.1112 (  1522 PWs)   bands (ev):

   -10.2747 -10.2632  -6.6040  -6.5968  -3.2563  -3.2523   2.0867   2.2238
     7.2731   7.3474  14.3545  14.7167

     occupation numbers 
     1.0000   1.0000   1.0000   1.0000   1.0000   1.0000   1.0000   1.0000
    -0.0000  -0.0000  -0.0000  -0.0000

          k = 0.5000-0.0962-0.1112 (  1522 PWs)   bands (ev):

   -10.2747 -10.2632  -6.6037  -6.5965  -3.2566  -3.2526   2.0864   2.2235
     7.2737   7.3481  14.3540  14.7160

     occupation numbers 
     1.0000   1.0000   1.0000   1.0000   1.0000   1.0000   1.0000   1.0000
    -0.0000  -0.0000  -0.0000  -0.0000

          k =-0.3333-0.3849 0.1483 (  1520 PWs)   bands (ev):

   -10.2690 -10.2690  -6.6004  -6.6004  -3.2543  -3.2543   2.1546   2.1546
     7.3095   7.3095  14.6249  14.6250

     occupation numbers 
     1.0000   1.0000   1.0000   1.0000   1.0000   1.0000   1.0000   1.0000
    -0.0000  -0.0000  -0.0000  -0.0000

          k = 0.5000-0.0962 0.1483 (  1520 PWs)   bands (ev):

   -10.2689 -10.2689  -6.6001  -6.6001  -3.2546  -3.2546   2.1543   2.1543
     7.3101   7.3101  14.6241  14.6241

     occupation numbers 
     1.0000   1.0000   1.0000   1.0000   1.0000   1.0000   1.0000   1.0000
    -0.0000  -0.0000  -0.0000  -0.0000

          k =-0.4167-0.4330 0.0000 (  1527 PWs)   bands (ev):

    -9.0522  -9.0380  -8.0289  -8.0184  -3.4444  -3.4335   2.9539   3.1232
     6.1962   6.3270  14.6163  14.7553

     occupation numbers 
     1.0000   1.0000   1.0000   1.0000   1.0000   1.0000   1.0000   1.0000
    -0.0000  -0.0000  -0.0000  -0.0000

          k =-0.4167-0.4330-0.0371 (  1523 PWs)   bands (ev):

    -9.0516  -9.0385  -8.0286  -8.0188  -3.4440  -3.4339   2.9609   3.1173
     6.1992   6.3202  14.6210  14.7491

     occupation numbers 
     1.0000   1.0000   1.0000   1.0000   1.0000   1.0000   1.0000   1.0000
    -0.0000  -0.0000  -0.0000  -0.0000

          k =-0.4167-0.4330-0.0741 (  1526 PWs)   bands (ev):

    -9.0501  -9.0400  -8.0275  -8.0200  -3.4428  -3.4351   2.9804   3.1003
     6.2085   6.3014  14.6344  14.7320

     occupation numbers 
     1.0000   1.0000   1.0000   1.0000   1.0000   1.0000   1.0000   1.0000
    -0.0000  -0.0000  -0.0000  -0.0000

          k =-0.4167-0.4330-0.1112 (  1533 PWs)   bands (ev):

    -9.0477  -9.0423  -8.0258  -8.0218  -3.4410  -3.4368   3.0090   3.0740
     6.2250   6.2754  14.6548  14.7073

     occupation numbers 
     1.0000   1.0000   1.0000   1.0000   1.0000   1.0000   1.0000   1.0000
    -0.0000  -0.0000  -0.0000  -0.0000

          k =-0.4167-0.4330 0.1483 (  1532 PWs)   bands (ev):

    -9.0450  -9.0450  -8.0238  -8.0238  -3.4389  -3.4389   3.0421   3.0421
     6.2483   6.2483  14.6802  14.6802

     occupation numbers 
     1.0000   1.0000   1.0000   1.0000   1.0000   1.0000   1.0000   1.0000
    -0.0000  -0.0000  -0.0000  -0.0000

          k = 0.5000-0.0000 0.0000 (  1525 PWs)   bands (ev):

   -10.4310 -10.4002  -5.7372  -5.7280  -4.1576  -4.1506   1.8831   2.2704
     7.5377   7.6740  13.6410  15.3834

     occupation numbers 
     1.0000   1.0000   1.0000   1.0000   1.0000   1.0000   1.0000   1.0000
    -0.0000  -0.0000  -0.0000  -0.0000

          k = 0.5000-0.0000-0.0371 (  1525 PWs)   bands (ev):

   -10.4298 -10.4014  -5.7368  -5.7283  -4.1574  -4.1509   1.8970   2.2548
     7.5429   7.6688  13.7003  15.3011

     occupation numbers 
     1.0000   1.0000   1.0000   1.0000   1.0000   1.0000   1.0000   1.0000
    -0.0000  -0.0000  -0.0000  -0.0000

          k = 0.5000-0.0000-0.0741 (  1530 PWs)   bands (ev):

   -10.4265 -10.4048  -5.7358  -5.7293  -4.1566  -4.1517   1.9370   2.2106
     7.5575   7.6539  13.8706  15.0821

     occupation numbers 
     1.0000   1.0000   1.0000   1.0000   1.0000   1.0000   1.0000   1.0000
    -0.0000  -0.0000  -0.0000  -0.0000

          k = 0.5000-0.0000-0.1112 (  1531 PWs)   bands (ev):

   -10.4216 -10.4098  -5.7343  -5.7308  -4.1555  -4.1528   1.9977   2.1457
     7.5796   7.6317  14.1310  14.7807

     occupation numbers 
     1.0000   1.0000   1.0000   1.0000   1.0000   1.0000   1.0000   1.0000
    -0.0000  -0.0000  -0.0000  -0.0000

          k = 0.5000-0.0000 0.1483 (  1534 PWs)   bands (ev):

   -10.4157 -10.4157  -5.7326  -5.7326  -4.1542  -4.1542   2.0708   2.0708
     7.6056   7.6056  14.4481  14.4481

     occupation numbers 
     1.0000   1.0000   1.0000   1.0000   1.0000   1.0000   1.0000   1.0000
    -0.0000  -0.0000  -0.0000  -0.0000

          k =-0.3333-0.4811 0.0000 (  1531 PWs)   bands (ev):

    -9.0137  -8.9894  -7.1543  -7.1386  -4.8644  -4.8527   3.3187   3.5828
     6.0313   6.1614  15.5761  15.6360

     occupation numbers 
     1.0000   1.0000   1.0000   1.0000   1.0000   1.0000   1.0000   1.0001
    -0.0001  -0.0000  -0.0000  -0.0000

          k = 0.5833-0.0481 0.0000 (  1531 PWs)   bands (ev):

    -9.0138  -8.9895  -7.1538  -7.1381  -4.8648  -4.8531   3.3182   3.5822
     6.0320   6.1622  15.5761  15.6353

     occupation numbers 
     1.0000   1.0000   1.0000   1.0000   1.0000   1.0000   1.0000   1.0001
    -0.0001  -0.0000  -0.0000  -0.0000

          k =-0.3333-0.4811-0.0371 (  1532 PWs)   bands (ev):

    -9.0128  -8.9903  -7.1537  -7.1392  -4.8639  -4.8531   3.3286   3.5727
     6.0357   6.1559  15.5082  15.5975

     occupation numbers 
     1.0000   1.0000   1.0000   1.0000   1.0000   1.0000   1.0000   1.0001
    -0.0001  -0.0000  -0.0000  -0.0000

          k = 0.5833-0.0481-0.0371 (  1532 PWs)   bands (ev):

    -9.0128  -8.9904  -7.1532  -7.1387  -4.8644  -4.8536   3.3281   3.5721
     6.0364   6.1567  15.5081  15.5967

     occupation numbers 
     1.0000   1.0000   1.0000   1.0000   1.0000   1.0000   1.0000   1.0001
    -0.0001  -0.0000  -0.0000  -0.0000

          k =-0.3333-0.4811-0.0741 (  1531 PWs)   bands (ev):

    -9.0101  -8.9930  -7.1520  -7.1409  -4.8627  -4.8544   3.3570   3.5438
     6.0484   6.1404  15.4052  15.4976

     occupation numbers 
     1.0000   1.0000   1.0000   1.0000   1.0000   1.0000   1.0000   1.0001
    -0.0001  -0.0000  -0.0000  -0.0000

          k = 0.5833-0.0481-0.0741 (  1531 PWs)   bands (ev):

    -9.0102  -8.9931  -7.1515  -7.1404  -4.8632  -4.8549   3.3565   3.5433
     6.0491   6.1413  15.4052  15.4970

     occupation numbers 
     1.0000   1.0000   1.0000   1.0000   1.0000   1.0000   1.0000   1.0001
    -0.0001  -0.0000  -0.0000  -0.0000

          k =-0.3333-0.4811-0.1112 (  1536 PWs)   bands (ev):

    -9.0062  -8.9969  -7.1495  -7.1435  -4.8608  -4.8563   3.3996   3.5008
     6.0681   6.1179  15.3427  15.3982

     occupation numbers 
     1.0000   1.0000   1.0000   1.0000   1.0000   1.0000   1.0000   1.0000
    -0.0001  -0.0000  -0.0000  -0.0000

          k = 0.5833-0.0481-0.1112 (  1536 PWs)   bands (ev):

    -9.0063  -8.9970  -7.1490  -7.1430  -4.8613  -4.8568   3.3991   3.5002
     6.0689   6.1188  15.3425  15.3977

     occupation numbers 
     1.0000   1.0000   1.0000   1.0000   1.0000   1.0000   1.0000   1.0000
    -0.0001  -0.0000  -0.0000  -0.0000

          k =-0.3333-0.4811 0.1483 (  1544 PWs)   bands (ev):

    -9.0016  -9.0016  -7.1465  -7.1465  -4.8586  -4.8586   3.4501   3.4501
     6.0924   6.0924  15.3407  15.3407

     occupation numbers 
     1.0000   1.0000   1.0000   1.0000   1.0000   1.0000   1.0000   1.0000
    -0.0000  -0.0000  -0.0000  -0.0000

          k = 0.5833-0.0481 0.1483 (  1544 PWs)   bands (ev):

    -9.0017  -9.0017  -7.1460  -7.1460  -4.8590  -4.8590   3.4496   3.4496
     6.0932   6.0932  15.3403  15.3403

     occupation numbers 
     1.0000   1.0000   1.0000   1.0000   1.0000   1.0000   1.0000   1.0000
    -0.0000  -0.0000  -0.0000  -0.0000

     the Fermi energy is     4.8004 ev

!    total energy              =     -49.71387878 Ry
     estimated scf accuracy    <          3.0E-10 Ry
     smearing contrib. (-TS)   =      -0.00041929 Ry
     internal energy E=F+TS    =     -49.71345949 Ry

     The total energy is F=E-TS. E is the sum of the following terms:
     one-electron contribution =     -29.91197567 Ry
     hartree contribution      =      21.73969101 Ry
     xc contribution           =     -18.53787230 Ry
     ewald contribution        =     -23.00330253 Ry

     convergence has been achieved in   7 iterations

     Forces acting on atoms (cartesian axes, Ry/au):

     atom    1 type  1   force =     0.00000000   -0.00027603    0.00000000
     atom    2 type  1   force =     0.00000000    0.00027603    0.00000000
     atom    3 type  1   force =     0.00000000    0.00027686    0.00000000
     atom    4 type  1   force =     0.00000000   -0.00027686    0.00000000
     The non-local contrib.  to forces
     atom    1 type  1   force =     0.00000000   -0.00025755    0.00000000
     atom    2 type  1   force =     0.00000000    0.00025755    0.00000000
     atom    3 type  1   force =     0.00000000    0.00025775    0.00000000
     atom    4 type  1   force =    -0.00000000   -0.00025775    0.00000000
     The ionic contribution  to forces
     atom    1 type  1   force =    -0.00000000   -0.00098176   -0.00000000
     atom    2 type  1   force =    -0.00000000    0.00098176    0.00000000
     atom    3 type  1   force =    -0.00000000    0.00098202   -0.00000000
     atom    4 type  1   force =     0.00000000   -0.00098202    0.00000000
     The local contribution  to forces
     atom    1 type  1   force =     0.00000000    0.00095516    0.00000000
     atom    2 type  1   force =    -0.00000000   -0.00095516    0.00000000
     atom    3 type  1   force =    -0.00000000   -0.00095528    0.00000000
     atom    4 type  1   force =    -0.00000000    0.00095528    0.00000000
     The core correction contribution to forces
     atom    1 type  1   force =     0.00000000    0.00000851    0.00000000
     atom    2 type  1   force =    -0.00000000   -0.00000851   -0.00000000
     atom    3 type  1   force =     0.00000000   -0.00000777   -0.00000000
     atom    4 type  1   force =     0.00000000    0.00000777   -0.00000000
     The Hubbard contrib.    to forces
     atom    1 type  1   force =     0.00000000    0.00000000    0.00000000
     atom    2 type  1   force =     0.00000000    0.00000000    0.00000000
     atom    3 type  1   force =     0.00000000    0.00000000    0.00000000
     atom    4 type  1   force =     0.00000000    0.00000000    0.00000000
     The SCF correction term to forces
     atom    1 type  1   force =    -0.00000000   -0.00000039   -0.00000000
     atom    2 type  1   force =     0.00000000    0.00000039   -0.00000000
     atom    3 type  1   force =    -0.00000000    0.00000014   -0.00000000
     atom    4 type  1   force =     0.00000000   -0.00000014   -0.00000000

     Total force =     0.000553     Total SCF correction =     0.000001


     Computing stress (Cartesian axis) and pressure

          total   stress  (Ry/bohr**3)                   (kbar)     P=      -12.09
  -0.00012356   0.00000000   0.00000000          -18.18        0.00        0.00
   0.00000000  -0.00012246   0.00000000            0.00      -18.01        0.00
   0.00000000   0.00000000  -0.00000055            0.00        0.00       -0.08

     kinetic stress (kbar)   9267.03     -0.00      0.00
                               -0.00   9266.29      0.00
                                0.00      0.00  10528.27

     local   stress (kbar) -26774.19     -0.00     -0.00
                               -0.00 -26778.62     -0.00
                               -0.00     -0.00  27091.40

     nonloc. stress (kbar)   1801.58      0.00      0.00
                                0.00   1801.74     -0.00
                                0.00     -0.00   1655.18

     hartree stress (kbar)   9939.44     -0.00      0.00
                               -0.00   9940.07     -0.00
                                0.00     -0.00  -9112.01

     exc-cor stress (kbar)   -164.92      0.00      0.00
                                0.00   -164.89      0.00
                                0.00      0.00   -269.55

     corecor stress (kbar)  -2235.97     -0.00      0.00
                               -0.00  -2235.99      0.00
                                0.00      0.00  -2197.78

     ewald   stress (kbar)   8148.85     -0.00     -0.00
                               -0.00   8153.39      0.00
                               -0.00      0.00 -27695.59

     hubbard stress (kbar)      0.00      0.00      0.00
                                0.00      0.00      0.00
                                0.00      0.00      0.00

     DFT-D   stress (kbar)      0.00      0.00      0.00
                                0.00      0.00      0.00
                                0.00      0.00      0.00

     XDM     stress (kbar)      0.00      0.00      0.00
                                0.00      0.00      0.00
                                0.00      0.00      0.00

     dft-nl  stress (kbar)      0.00      0.00      0.00
                                0.00      0.00      0.00
                                0.00      0.00      0.00

     TS-vdW  stress (kbar)      0.00      0.00      0.00
                                0.00      0.00      0.00
                                0.00      0.00      0.00



     Writing output data file ./tmp/C.save/

     init_run     :     17.56s CPU     18.72s WALL (       1 calls)
     electrons    :    110.71s CPU    114.99s WALL (       1 calls)
     forces       :      1.99s CPU      2.01s WALL (       1 calls)
     stress       :      9.04s CPU      9.20s WALL (       1 calls)

     Called by init_run:
     wfcinit      :     15.91s CPU     16.96s WALL (       1 calls)
     wfcinit:atom :      0.53s CPU      0.59s WALL (     215 calls)
     wfcinit:wfcr :     12.26s CPU     13.11s WALL (     215 calls)
     potinit      :      0.37s CPU      0.40s WALL (       1 calls)
     hinit0       :      1.06s CPU      1.10s WALL (       1 calls)

     Called by electrons:
     c_bands      :     92.87s CPU     96.63s WALL (       7 calls)
     sum_band     :     16.02s CPU     16.53s WALL (       7 calls)
     v_of_rho     :      1.45s CPU      1.49s WALL (       8 calls)
     v_h          :      0.08s CPU      0.08s WALL (       8 calls)
     v_xc         :      1.71s CPU      1.75s WALL (      10 calls)
     newd         :      0.46s CPU      0.48s WALL (       8 calls)
     mix_rho      :      0.12s CPU      0.12s WALL (       7 calls)

     Called by c_bands:
     init_us_2    :      4.64s CPU      4.78s WALL (    3655 calls)
     cegterg      :     87.22s CPU     90.81s WALL (    1505 calls)

     Called by sum_band:
     sum_band:wei :      0.07s CPU      0.07s WALL (       7 calls)
     sum_band:loo :     15.22s CPU     15.70s WALL (       7 calls)
     sum_band:buf :      0.17s CPU      0.19s WALL (    1505 calls)
     sum_band:ini :      1.68s CPU      1.71s WALL (    1505 calls)
     sum_band:cal :      1.30s CPU      1.33s WALL (    1505 calls)
     sum_band:bec :      0.05s CPU      0.05s WALL (    1505 calls)
     addusdens    :      0.40s CPU      0.42s WALL (       7 calls)
     addusd:skk   :      0.01s CPU      0.01s WALL (       7 calls)
     addusd:dgemm :      0.08s CPU      0.10s WALL (       7 calls)
     addusd:qvan2 :      0.19s CPU      0.19s WALL (       7 calls)

     Called by *egterg:
     cdiaghg      :      3.22s CPU      3.40s WALL (    6385 calls)
     cegterg:over :      4.11s CPU      4.29s WALL (    4880 calls)
     cegterg:upda :      2.69s CPU      2.78s WALL (    4880 calls)
     cegterg:last :      4.43s CPU      4.59s WALL (    3261 calls)
     h_psi        :     76.43s CPU     79.97s WALL (    6600 calls)
     s_psi        :      4.16s CPU      4.34s WALL (    6600 calls)
     g_psi        :      0.91s CPU      0.94s WALL (    4880 calls)

     Called by h_psi:
     h_psi:calbec :      4.68s CPU      4.89s WALL (    6600 calls)
     vloc_psi     :     66.44s CPU     69.45s WALL (    6600 calls)
     add_vuspsi   :      4.45s CPU      4.75s WALL (    6600 calls)

     General routines
     calbec       :      6.77s CPU      7.06s WALL (    9180 calls)
     fft          :      0.93s CPU      0.94s WALL (     127 calls)
     ffts         :      0.03s CPU      0.03s WALL (      15 calls)
     fftw         :     62.19s CPU     65.02s WALL (  121252 calls)
     interpolate  :      0.08s CPU      0.08s WALL (       8 calls)

     Parallel routines

     PWSCF        :   2m19.64s CPU   2m25.56s WALL


   This run was terminated on:  11:39:51  23May2022            

=------------------------------------------------------------------------------=
   JOB DONE.
=------------------------------------------------------------------------------=
