
     Program PWSCF v.6.7MaX starts on 23May2022 at 11:52:47 

     This program is part of the open-source Quantum ESPRESSO suite
     for quantum simulation of materials; please cite
         "P. Giannozzi et al., J. Phys.:Condens. Matter 21 395502 (2009);
         "P. Giannozzi et al., J. Phys.:Condens. Matter 29 465901 (2017);
          URL http://www.quantum-espresso.org", 
     in publications or presentations arising from this work. More details at
     http://www.quantum-espresso.org/quote

     Parallel version (MPI), running on     1 processors

     MPI processes distributed on     1 nodes
     Waiting for input...
     Reading input from standard input

     Current dimensions of program PWSCF are:
     Max number of different atomic species (ntypx) = 10
     Max number of k-points (npk) =  40000
     Max angular momentum in pseudopotentials (lmaxx) =  3

     Subspace diagonalization in iterative solution of the eigenvalue problem:
     a serial algorithm will be used


     G-vector sticks info
     --------------------
     sticks:   dense  smooth     PW     G-vecs:    dense   smooth      PW
     Sum         721     361    121                52789    18701    3295



     bravais-lattice index     =            4
     lattice parameter (alat)  =       4.6676  a.u.
     unit-cell volume          =     297.0066 (a.u.)^3
     number of atoms/cell      =            4
     number of atomic types    =            1
     number of electrons       =        16.00
     number of Kohn-Sham states=           12
     kinetic-energy cutoff     =      60.0000  Ry
     charge density cutoff     =     480.0000  Ry
     scf convergence threshold =      1.0E-09
     mixing beta               =       0.7000
     number of iterations used =            8  plain     mixing
     Exchange-correlation= PBE
                           (   1   4   3   4   0   0   0)

     celldm(1)=   4.667624  celldm(2)=   1.000000  celldm(3)=   3.372470
     celldm(4)=   0.000000  celldm(5)=   0.000000  celldm(6)=   0.000000

     crystal axes: (cart. coord. in units of alat)
               a(1) = (   1.000000   0.000000   0.000000 )  
               a(2) = (  -0.500000   0.866025   0.000000 )  
               a(3) = (   0.000000   0.000000   3.372470 )  

     reciprocal axes: (cart. coord. in units 2 pi/alat)
               b(1) = (  1.000000  0.577350 -0.000000 )  
               b(2) = (  0.000000  1.154701  0.000000 )  
               b(3) = (  0.000000 -0.000000  0.296519 )  


     PseudoPot. # 1 for C  read from file:
     /home/max/Desktop/graphite_DFT/Pseudo/C.pbe-n-rrkjus_psl.1.0.0.UPF
     MD5 check sum: 1fdd950c42eb37d8afe3dd2f8d12311e
     Pseudo is Ultrasoft + core correction, Zval =  4.0
     Generated using &quot;atomic&quot; code by A. Dal Corso  v.6.3MaX
     Using radial grid of 1073 points,  4 beta functions with: 
                l(1) =   0
                l(2) =   0
                l(3) =   1
                l(4) =   1
     Q(r) pseudized with 0 coefficients 


     atomic species   valence    mass     pseudopotential
        C              4.00    12.01100     C ( 1.00)

      8 Sym. Ops., with inversion, found ( 4 have fractional translation)


                                    s                        frac. trans.

      isym =  1     identity                                     

 cryst.   s( 1) = (     1          0          0      )
                  (     0          1          0      )
                  (     0          0          1      )

 cart.    s( 1) = (  1.0000000  0.0000000  0.0000000 )
                  (  0.0000000  1.0000000  0.0000000 )
                  (  0.0000000  0.0000000  1.0000000 )


      isym =  2     180 deg rotation - cart. axis [0,0,1]        

 cryst.   s( 2) = (    -1          0          0      )    f =(  0.0000000 )
                  (     0         -1          0      )       (  0.0000000 )
                  (     0          0          1      )       ( -0.5000000 )

 cart.    s( 2) = ( -1.0000000  0.0000000  0.0000000 )    f =(  0.0000000 )
                  (  0.0000000 -1.0000000  0.0000000 )       (  0.0000000 )
                  (  0.0000000  0.0000000  1.0000000 )       ( -1.6862348 )


      isym =  3     180 deg rotation - cart. axis [0,1,0]        

 cryst.   s( 3) = (    -1          0          0      )    f =(  0.0000000 )
                  (     1          1          0      )       (  0.0000000 )
                  (     0          0         -1      )       (  0.5000000 )

 cart.    s( 3) = ( -1.0000000  0.0000000  0.0000000 )    f =(  0.0000000 )
                  (  0.0000000  1.0000000  0.0000000 )       (  0.0000000 )
                  (  0.0000000  0.0000000 -1.0000000 )       (  1.6862348 )


      isym =  4     180 deg rotation - cart. axis [1,0,0]        

 cryst.   s( 4) = (     1          0          0      )
                  (    -1         -1          0      )
                  (     0          0         -1      )

 cart.    s( 4) = (  1.0000000  0.0000000  0.0000000 )
                  (  0.0000000 -1.0000000  0.0000000 )
                  (  0.0000000  0.0000000 -1.0000000 )


      isym =  5     inversion                                    

 cryst.   s( 5) = (    -1          0          0      )
                  (     0         -1          0      )
                  (     0          0         -1      )

 cart.    s( 5) = ( -1.0000000  0.0000000  0.0000000 )
                  (  0.0000000 -1.0000000  0.0000000 )
                  (  0.0000000  0.0000000 -1.0000000 )


      isym =  6     inv. 180 deg rotation - cart. axis [0,0,1]   

 cryst.   s( 6) = (     1          0          0      )    f =(  0.0000000 )
                  (     0          1          0      )       (  0.0000000 )
                  (     0          0         -1      )       (  0.5000000 )

 cart.    s( 6) = (  1.0000000  0.0000000  0.0000000 )    f =(  0.0000000 )
                  (  0.0000000  1.0000000  0.0000000 )       (  0.0000000 )
                  (  0.0000000  0.0000000 -1.0000000 )       (  1.6862348 )


      isym =  7     inv. 180 deg rotation - cart. axis [0,1,0]   

 cryst.   s( 7) = (     1          0          0      )    f =(  0.0000000 )
                  (    -1         -1          0      )       (  0.0000000 )
                  (     0          0          1      )       ( -0.5000000 )

 cart.    s( 7) = (  1.0000000  0.0000000  0.0000000 )    f =(  0.0000000 )
                  (  0.0000000 -1.0000000  0.0000000 )       (  0.0000000 )
                  (  0.0000000  0.0000000  1.0000000 )       ( -1.6862348 )


      isym =  8     inv. 180 deg rotation - cart. axis [1,0,0]   

 cryst.   s( 8) = (    -1          0          0      )
                  (     1          1          0      )
                  (     0          0          1      )

 cart.    s( 8) = ( -1.0000000  0.0000000  0.0000000 )
                  (  0.0000000  1.0000000  0.0000000 )
                  (  0.0000000  0.0000000  1.0000000 )


     point group D_2h (mmm) 
     there are  8 classes
     the character table:

       E     C2    C2'   C2''  i     s_v   s_v'  s_v''
A_g    1.00  1.00  1.00  1.00  1.00  1.00  1.00  1.00
B_1g   1.00  1.00 -1.00 -1.00  1.00  1.00 -1.00 -1.00
B_2g   1.00 -1.00  1.00 -1.00  1.00 -1.00  1.00 -1.00
B_3g   1.00 -1.00 -1.00  1.00  1.00 -1.00 -1.00  1.00
A_u    1.00  1.00  1.00  1.00 -1.00 -1.00 -1.00 -1.00
B_1u   1.00  1.00 -1.00 -1.00 -1.00 -1.00  1.00  1.00
B_2u   1.00 -1.00  1.00 -1.00 -1.00  1.00 -1.00  1.00
B_3u   1.00 -1.00 -1.00  1.00 -1.00  1.00  1.00 -1.00

     the symmetry operations in each class and the name of the first element:

     E        1
          identity                                               
     C2       2
          180 deg rotation - cart. axis [0,0,1]                  
     C2'      4
          180 deg rotation - cart. axis [1,0,0]                  
     C2''     3
          180 deg rotation - cart. axis [0,1,0]                  
     i        5
          inversion                                              
     s_v      6
          inv. 180 deg rotation - cart. axis [0,0,1]             
     s_v'     8
          inv. 180 deg rotation - cart. axis [1,0,0]             
     s_v''    7
          inv. 180 deg rotation - cart. axis [0,1,0]             

   Cartesian axes

     site n.     atom                  positions (alat units)
         1           C   tau(   1) = (   0.0000000   0.0000000   0.8431174  )
         2           C   tau(   2) = (   0.0000000   0.0000000   2.5293522  )
         3           C   tau(   3) = (   0.0000000   0.5772925   0.8431174  )
         4           C   tau(   4) = (   0.5000000   0.2887329   2.5293522  )

   Crystallographic axes

     site n.     atom                  positions (cryst. coord.)
         1           C   tau(   1) = (  0.0000000  0.0000000  0.2500000  )
         2           C   tau(   2) = (  0.0000000  0.0000000  0.7500000  )
         3           C   tau(   3) = (  0.3333000  0.6666000  0.2500000  )
         4           C   tau(   4) = (  0.6667000  0.3334000  0.7500000  )

     number of k points=   215  Methfessel-Paxton smearing, width (Ry)=  0.0300
                       cart. coord. in units 2pi/alat
        k(    1) = (   0.0000000   0.0000000   0.0000000), wk =   0.0017361
        k(    2) = (   0.0000000   0.0000000   0.0370648), wk =   0.0034722
        k(    3) = (   0.0000000   0.0000000   0.0741297), wk =   0.0034722
        k(    4) = (   0.0000000   0.0000000   0.1111945), wk =   0.0034722
        k(    5) = (   0.0000000   0.0000000  -0.1482593), wk =   0.0017361
        k(    6) = (   0.0000000   0.0962250   0.0000000), wk =   0.0034722
        k(    7) = (   0.0000000   0.0962250   0.0370648), wk =   0.0069444
        k(    8) = (   0.0000000   0.0962250   0.0741297), wk =   0.0069444
        k(    9) = (   0.0000000   0.0962250   0.1111945), wk =   0.0069444
        k(   10) = (   0.0000000   0.0962250  -0.1482593), wk =   0.0034722
        k(   11) = (   0.0000000   0.1924501   0.0000000), wk =   0.0034722
        k(   12) = (   0.0000000   0.1924501   0.0370648), wk =   0.0069444
        k(   13) = (   0.0000000   0.1924501   0.0741297), wk =   0.0069444
        k(   14) = (   0.0000000   0.1924501   0.1111945), wk =   0.0069444
        k(   15) = (   0.0000000   0.1924501  -0.1482593), wk =   0.0034722
        k(   16) = (   0.0000000   0.2886751   0.0000000), wk =   0.0034722
        k(   17) = (   0.0000000   0.2886751   0.0370648), wk =   0.0069444
        k(   18) = (   0.0000000   0.2886751   0.0741297), wk =   0.0069444
        k(   19) = (   0.0000000   0.2886751   0.1111945), wk =   0.0069444
        k(   20) = (   0.0000000   0.2886751  -0.1482593), wk =   0.0034722
        k(   21) = (   0.0000000   0.3849002   0.0000000), wk =   0.0034722
        k(   22) = (   0.0000000   0.3849002   0.0370648), wk =   0.0069444
        k(   23) = (   0.0000000   0.3849002   0.0741297), wk =   0.0069444
        k(   24) = (   0.0000000   0.3849002   0.1111945), wk =   0.0069444
        k(   25) = (   0.0000000   0.3849002  -0.1482593), wk =   0.0034722
        k(   26) = (   0.0000000   0.4811252   0.0000000), wk =   0.0034722
        k(   27) = (   0.0000000   0.4811252   0.0370648), wk =   0.0069444
        k(   28) = (   0.0000000   0.4811252   0.0741297), wk =   0.0069444
        k(   29) = (   0.0000000   0.4811252   0.1111945), wk =   0.0069444
        k(   30) = (   0.0000000   0.4811252  -0.1482593), wk =   0.0034722
        k(   31) = (   0.0000000  -0.5773503   0.0000000), wk =   0.0017361
        k(   32) = (   0.0000000  -0.5773503   0.0370648), wk =   0.0034722
        k(   33) = (   0.0000000  -0.5773503   0.0741297), wk =   0.0034722
        k(   34) = (   0.0000000  -0.5773503   0.1111945), wk =   0.0034722
        k(   35) = (   0.0000000  -0.5773503  -0.1482593), wk =   0.0017361
        k(   36) = (   0.0833333   0.1443376   0.0000000), wk =   0.0069444
        k(   37) = (   0.0833333   0.1443376   0.0370648), wk =   0.0138889
        k(   38) = (   0.0833333   0.1443376   0.0741297), wk =   0.0138889
        k(   39) = (   0.0833333   0.1443376   0.1111945), wk =   0.0138889
        k(   40) = (   0.0833333   0.1443376  -0.1482593), wk =   0.0069444
        k(   41) = (   0.0833333   0.2405626   0.0000000), wk =   0.0069444
        k(   42) = (   0.0833333   0.2405626   0.0370648), wk =   0.0138889
        k(   43) = (   0.0833333   0.2405626   0.0741297), wk =   0.0138889
        k(   44) = (   0.0833333   0.2405626   0.1111945), wk =   0.0138889
        k(   45) = (   0.0833333   0.2405626  -0.1482593), wk =   0.0069444
        k(   46) = (   0.0833333   0.3367877   0.0000000), wk =   0.0069444
        k(   47) = (   0.0833333   0.3367877   0.0370648), wk =   0.0138889
        k(   48) = (   0.0833333   0.3367877   0.0741297), wk =   0.0138889
        k(   49) = (   0.0833333   0.3367877   0.1111945), wk =   0.0138889
        k(   50) = (   0.0833333   0.3367877  -0.1482593), wk =   0.0069444
        k(   51) = (   0.0833333   0.4330127   0.0000000), wk =   0.0069444
        k(   52) = (   0.0833333   0.4330127   0.0370648), wk =   0.0138889
        k(   53) = (   0.0833333   0.4330127   0.0741297), wk =   0.0138889
        k(   54) = (   0.0833333   0.4330127   0.1111945), wk =   0.0138889
        k(   55) = (   0.0833333   0.4330127  -0.1482593), wk =   0.0069444
        k(   56) = (   0.0833333   0.5292377   0.0000000), wk =   0.0069444
        k(   57) = (   0.0833333   0.5292377   0.0370648), wk =   0.0138889
        k(   58) = (   0.0833333   0.5292377   0.0741297), wk =   0.0138889
        k(   59) = (   0.0833333   0.5292377   0.1111945), wk =   0.0138889
        k(   60) = (   0.0833333   0.5292377  -0.1482593), wk =   0.0069444
        k(   61) = (   0.1666667   0.2886751   0.0000000), wk =   0.0069444
        k(   62) = (   0.1666667   0.2886751   0.0370648), wk =   0.0138889
        k(   63) = (   0.1666667   0.2886751   0.0741297), wk =   0.0138889
        k(   64) = (   0.1666667   0.2886751   0.1111945), wk =   0.0138889
        k(   65) = (   0.1666667   0.2886751  -0.1482593), wk =   0.0069444
        k(   66) = (   0.1666667   0.3849002   0.0000000), wk =   0.0069444
        k(   67) = (   0.1666667   0.3849002   0.0370648), wk =   0.0138889
        k(   68) = (   0.1666667   0.3849002   0.0741297), wk =   0.0138889
        k(   69) = (   0.1666667   0.3849002   0.1111945), wk =   0.0138889
        k(   70) = (   0.1666667   0.3849002  -0.1482593), wk =   0.0069444
        k(   71) = (   0.1666667   0.4811252   0.0000000), wk =   0.0069444
        k(   72) = (   0.1666667   0.4811252   0.0370648), wk =   0.0138889
        k(   73) = (   0.1666667   0.4811252   0.0741297), wk =   0.0138889
        k(   74) = (   0.1666667   0.4811252   0.1111945), wk =   0.0138889
        k(   75) = (   0.1666667   0.4811252  -0.1482593), wk =   0.0069444
        k(   76) = (   0.1666667   0.5773503   0.0000000), wk =   0.0034722
        k(   77) = (   0.1666667   0.5773503   0.0370648), wk =   0.0069444
        k(   78) = (   0.1666667   0.5773503   0.0741297), wk =   0.0069444
        k(   79) = (   0.1666667   0.5773503   0.1111945), wk =   0.0069444
        k(   80) = (   0.1666667   0.5773503  -0.1482593), wk =   0.0034722
        k(   81) = (   0.2500000   0.4330127   0.0000000), wk =   0.0069444
        k(   82) = (   0.2500000   0.4330127   0.0370648), wk =   0.0138889
        k(   83) = (   0.2500000   0.4330127   0.0741297), wk =   0.0138889
        k(   84) = (   0.2500000   0.4330127   0.1111945), wk =   0.0138889
        k(   85) = (   0.2500000   0.4330127  -0.1482593), wk =   0.0069444
        k(   86) = (   0.2500000   0.5292377   0.0000000), wk =   0.0069444
        k(   87) = (   0.2500000   0.5292377   0.0370648), wk =   0.0138889
        k(   88) = (   0.2500000   0.5292377   0.0741297), wk =   0.0138889
        k(   89) = (   0.2500000   0.5292377   0.1111945), wk =   0.0138889
        k(   90) = (   0.2500000   0.5292377  -0.1482593), wk =   0.0069444
        k(   91) = (   0.3333333   0.5773503   0.0000000), wk =   0.0034722
        k(   92) = (   0.3333333   0.5773503   0.0370648), wk =   0.0069444
        k(   93) = (   0.3333333   0.5773503   0.0741297), wk =   0.0069444
        k(   94) = (   0.3333333   0.5773503   0.1111945), wk =   0.0069444
        k(   95) = (   0.3333333   0.5773503  -0.1482593), wk =   0.0034722
        k(   96) = (  -0.0833333  -0.0481125   0.0000000), wk =   0.0069444
        k(   97) = (  -0.0833333  -0.0481125  -0.0370648), wk =   0.0138889
        k(   98) = (  -0.0833333  -0.0481125  -0.0741297), wk =   0.0138889
        k(   99) = (  -0.0833333  -0.0481125  -0.1111945), wk =   0.0138889
        k(  100) = (  -0.0833333  -0.0481125   0.1482593), wk =   0.0069444
        k(  101) = (  -0.1666667  -0.0962250   0.0000000), wk =   0.0069444
        k(  102) = (  -0.1666667  -0.0962250  -0.0370648), wk =   0.0138889
        k(  103) = (  -0.1666667  -0.0962250  -0.0741297), wk =   0.0138889
        k(  104) = (  -0.1666667  -0.0962250  -0.1111945), wk =   0.0138889
        k(  105) = (  -0.1666667  -0.0962250   0.1482593), wk =   0.0069444
        k(  106) = (  -0.2500000  -0.1443376   0.0000000), wk =   0.0069444
        k(  107) = (  -0.2500000  -0.1443376  -0.0370648), wk =   0.0138889
        k(  108) = (  -0.2500000  -0.1443376  -0.0741297), wk =   0.0138889
        k(  109) = (  -0.2500000  -0.1443376  -0.1111945), wk =   0.0138889
        k(  110) = (  -0.2500000  -0.1443376   0.1482593), wk =   0.0069444
        k(  111) = (  -0.3333333  -0.1924501   0.0000000), wk =   0.0069444
        k(  112) = (  -0.3333333  -0.1924501  -0.0370648), wk =   0.0138889
        k(  113) = (  -0.3333333  -0.1924501  -0.0741297), wk =   0.0138889
        k(  114) = (  -0.3333333  -0.1924501  -0.1111945), wk =   0.0138889
        k(  115) = (  -0.3333333  -0.1924501   0.1482593), wk =   0.0069444
        k(  116) = (  -0.4166667  -0.2405626   0.0000000), wk =   0.0069444
        k(  117) = (  -0.4166667  -0.2405626  -0.0370648), wk =   0.0138889
        k(  118) = (  -0.4166667  -0.2405626  -0.0741297), wk =   0.0138889
        k(  119) = (  -0.4166667  -0.2405626  -0.1111945), wk =   0.0138889
        k(  120) = (  -0.4166667  -0.2405626   0.1482593), wk =   0.0069444
        k(  121) = (   0.5000000   0.2886751   0.0000000), wk =   0.0034722
        k(  122) = (   0.5000000   0.2886751  -0.0370648), wk =   0.0069444
        k(  123) = (   0.5000000   0.2886751  -0.0741297), wk =   0.0069444
        k(  124) = (   0.5000000   0.2886751  -0.1111945), wk =   0.0069444
        k(  125) = (   0.5000000   0.2886751   0.1482593), wk =   0.0034722
        k(  126) = (   0.1666667   0.0000000   0.0000000), wk =   0.0034722
        k(  127) = (   0.1666667   0.0000000  -0.0370648), wk =   0.0069444
        k(  128) = (   0.1666667   0.0000000  -0.0741297), wk =   0.0069444
        k(  129) = (   0.1666667   0.0000000  -0.1111945), wk =   0.0069444
        k(  130) = (   0.1666667   0.0000000   0.1482593), wk =   0.0034722
        k(  131) = (  -0.1666667  -0.1924501   0.0000000), wk =   0.0069444
        k(  132) = (   0.2500000  -0.0481125   0.0000000), wk =   0.0069444
        k(  133) = (  -0.1666667  -0.1924501  -0.0370648), wk =   0.0138889
        k(  134) = (   0.2500000  -0.0481125  -0.0370648), wk =   0.0138889
        k(  135) = (  -0.1666667  -0.1924501  -0.0741297), wk =   0.0138889
        k(  136) = (   0.2500000  -0.0481125  -0.0741297), wk =   0.0138889
        k(  137) = (  -0.1666667  -0.1924501  -0.1111945), wk =   0.0138889
        k(  138) = (   0.2500000  -0.0481125  -0.1111945), wk =   0.0138889
        k(  139) = (  -0.1666667  -0.1924501   0.1482593), wk =   0.0069444
        k(  140) = (   0.2500000  -0.0481125   0.1482593), wk =   0.0069444
        k(  141) = (  -0.2500000  -0.2405626   0.0000000), wk =   0.0069444
        k(  142) = (   0.3333333  -0.0962250   0.0000000), wk =   0.0069444
        k(  143) = (  -0.2500000  -0.2405626  -0.0370648), wk =   0.0138889
        k(  144) = (   0.3333333  -0.0962250  -0.0370648), wk =   0.0138889
        k(  145) = (  -0.2500000  -0.2405626  -0.0741297), wk =   0.0138889
        k(  146) = (   0.3333333  -0.0962250  -0.0741297), wk =   0.0138889
        k(  147) = (  -0.2500000  -0.2405626  -0.1111945), wk =   0.0138889
        k(  148) = (   0.3333333  -0.0962250  -0.1111945), wk =   0.0138889
        k(  149) = (  -0.2500000  -0.2405626   0.1482593), wk =   0.0069444
        k(  150) = (   0.3333333  -0.0962250   0.1482593), wk =   0.0069444
        k(  151) = (  -0.3333333  -0.2886751   0.0000000), wk =   0.0069444
        k(  152) = (   0.4166667  -0.1443376   0.0000000), wk =   0.0069444
        k(  153) = (  -0.3333333  -0.2886751  -0.0370648), wk =   0.0138889
        k(  154) = (   0.4166667  -0.1443376  -0.0370648), wk =   0.0138889
        k(  155) = (  -0.3333333  -0.2886751  -0.0741297), wk =   0.0138889
        k(  156) = (   0.4166667  -0.1443376  -0.0741297), wk =   0.0138889
        k(  157) = (  -0.3333333  -0.2886751  -0.1111945), wk =   0.0138889
        k(  158) = (   0.4166667  -0.1443376  -0.1111945), wk =   0.0138889
        k(  159) = (  -0.3333333  -0.2886751   0.1482593), wk =   0.0069444
        k(  160) = (   0.4166667  -0.1443376   0.1482593), wk =   0.0069444
        k(  161) = (  -0.4166667  -0.3367877   0.0000000), wk =   0.0069444
        k(  162) = (   0.5000000  -0.1924501   0.0000000), wk =   0.0069444
        k(  163) = (  -0.4166667  -0.3367877  -0.0370648), wk =   0.0138889
        k(  164) = (   0.5000000  -0.1924501  -0.0370648), wk =   0.0138889
        k(  165) = (  -0.4166667  -0.3367877  -0.0741297), wk =   0.0138889
        k(  166) = (   0.5000000  -0.1924501  -0.0741297), wk =   0.0138889
        k(  167) = (  -0.4166667  -0.3367877  -0.1111945), wk =   0.0138889
        k(  168) = (   0.5000000  -0.1924501  -0.1111945), wk =   0.0138889
        k(  169) = (  -0.4166667  -0.3367877   0.1482593), wk =   0.0069444
        k(  170) = (   0.5000000  -0.1924501   0.1482593), wk =   0.0069444
        k(  171) = (   0.3333333   0.0000000   0.0000000), wk =   0.0034722
        k(  172) = (   0.3333333   0.0000000  -0.0370648), wk =   0.0069444
        k(  173) = (   0.3333333   0.0000000  -0.0741297), wk =   0.0069444
        k(  174) = (   0.3333333   0.0000000  -0.1111945), wk =   0.0069444
        k(  175) = (   0.3333333   0.0000000   0.1482593), wk =   0.0034722
        k(  176) = (  -0.2500000  -0.3367877   0.0000000), wk =   0.0069444
        k(  177) = (   0.4166667  -0.0481125   0.0000000), wk =   0.0069444
        k(  178) = (  -0.2500000  -0.3367877  -0.0370648), wk =   0.0138889
        k(  179) = (   0.4166667  -0.0481125  -0.0370648), wk =   0.0138889
        k(  180) = (  -0.2500000  -0.3367877  -0.0741297), wk =   0.0138889
        k(  181) = (   0.4166667  -0.0481125  -0.0741297), wk =   0.0138889
        k(  182) = (  -0.2500000  -0.3367877  -0.1111945), wk =   0.0138889
        k(  183) = (   0.4166667  -0.0481125  -0.1111945), wk =   0.0138889
        k(  184) = (  -0.2500000  -0.3367877   0.1482593), wk =   0.0069444
        k(  185) = (   0.4166667  -0.0481125   0.1482593), wk =   0.0069444
        k(  186) = (  -0.3333333  -0.3849002   0.0000000), wk =   0.0069444
        k(  187) = (   0.5000000  -0.0962250   0.0000000), wk =   0.0069444
        k(  188) = (  -0.3333333  -0.3849002  -0.0370648), wk =   0.0138889
        k(  189) = (   0.5000000  -0.0962250  -0.0370648), wk =   0.0138889
        k(  190) = (  -0.3333333  -0.3849002  -0.0741297), wk =   0.0138889
        k(  191) = (   0.5000000  -0.0962250  -0.0741297), wk =   0.0138889
        k(  192) = (  -0.3333333  -0.3849002  -0.1111945), wk =   0.0138889
        k(  193) = (   0.5000000  -0.0962250  -0.1111945), wk =   0.0138889
        k(  194) = (  -0.3333333  -0.3849002   0.1482593), wk =   0.0069444
        k(  195) = (   0.5000000  -0.0962250   0.1482593), wk =   0.0069444
        k(  196) = (  -0.4166667  -0.4330127   0.0000000), wk =   0.0069444
        k(  197) = (  -0.4166667  -0.4330127  -0.0370648), wk =   0.0138889
        k(  198) = (  -0.4166667  -0.4330127  -0.0741297), wk =   0.0138889
        k(  199) = (  -0.4166667  -0.4330127  -0.1111945), wk =   0.0138889
        k(  200) = (  -0.4166667  -0.4330127   0.1482593), wk =   0.0069444
        k(  201) = (   0.5000000  -0.0000000   0.0000000), wk =   0.0034722
        k(  202) = (   0.5000000  -0.0000000  -0.0370648), wk =   0.0069444
        k(  203) = (   0.5000000  -0.0000000  -0.0741297), wk =   0.0069444
        k(  204) = (   0.5000000  -0.0000000  -0.1111945), wk =   0.0069444
        k(  205) = (   0.5000000  -0.0000000   0.1482593), wk =   0.0034722
        k(  206) = (  -0.3333333  -0.4811252   0.0000000), wk =   0.0069444
        k(  207) = (   0.5833333  -0.0481125   0.0000000), wk =   0.0069444
        k(  208) = (  -0.3333333  -0.4811252  -0.0370648), wk =   0.0138889
        k(  209) = (   0.5833333  -0.0481125  -0.0370648), wk =   0.0138889
        k(  210) = (  -0.3333333  -0.4811252  -0.0741297), wk =   0.0138889
        k(  211) = (   0.5833333  -0.0481125  -0.0741297), wk =   0.0138889
        k(  212) = (  -0.3333333  -0.4811252  -0.1111945), wk =   0.0138889
        k(  213) = (   0.5833333  -0.0481125  -0.1111945), wk =   0.0138889
        k(  214) = (  -0.3333333  -0.4811252   0.1482593), wk =   0.0069444
        k(  215) = (   0.5833333  -0.0481125   0.1482593), wk =   0.0069444

                       cryst. coord.
        k(    1) = (   0.0000000   0.0000000   0.0000000), wk =   0.0017361
        k(    2) = (   0.0000000   0.0000000   0.1250000), wk =   0.0034722
        k(    3) = (   0.0000000   0.0000000   0.2500000), wk =   0.0034722
        k(    4) = (   0.0000000   0.0000000   0.3750000), wk =   0.0034722
        k(    5) = (   0.0000000   0.0000000  -0.5000000), wk =   0.0017361
        k(    6) = (   0.0000000   0.0833333   0.0000000), wk =   0.0034722
        k(    7) = (   0.0000000   0.0833333   0.1250000), wk =   0.0069444
        k(    8) = (   0.0000000   0.0833333   0.2500000), wk =   0.0069444
        k(    9) = (   0.0000000   0.0833333   0.3750000), wk =   0.0069444
        k(   10) = (   0.0000000   0.0833333  -0.5000000), wk =   0.0034722
        k(   11) = (   0.0000000   0.1666667   0.0000000), wk =   0.0034722
        k(   12) = (   0.0000000   0.1666667   0.1250000), wk =   0.0069444
        k(   13) = (   0.0000000   0.1666667   0.2500000), wk =   0.0069444
        k(   14) = (   0.0000000   0.1666667   0.3750000), wk =   0.0069444
        k(   15) = (   0.0000000   0.1666667  -0.5000000), wk =   0.0034722
        k(   16) = (   0.0000000   0.2500000   0.0000000), wk =   0.0034722
        k(   17) = (   0.0000000   0.2500000   0.1250000), wk =   0.0069444
        k(   18) = (   0.0000000   0.2500000   0.2500000), wk =   0.0069444
        k(   19) = (   0.0000000   0.2500000   0.3750000), wk =   0.0069444
        k(   20) = (   0.0000000   0.2500000  -0.5000000), wk =   0.0034722
        k(   21) = (   0.0000000   0.3333333   0.0000000), wk =   0.0034722
        k(   22) = (   0.0000000   0.3333333   0.1250000), wk =   0.0069444
        k(   23) = (   0.0000000   0.3333333   0.2500000), wk =   0.0069444
        k(   24) = (   0.0000000   0.3333333   0.3750000), wk =   0.0069444
        k(   25) = (   0.0000000   0.3333333  -0.5000000), wk =   0.0034722
        k(   26) = (   0.0000000   0.4166667   0.0000000), wk =   0.0034722
        k(   27) = (   0.0000000   0.4166667   0.1250000), wk =   0.0069444
        k(   28) = (   0.0000000   0.4166667   0.2500000), wk =   0.0069444
        k(   29) = (   0.0000000   0.4166667   0.3750000), wk =   0.0069444
        k(   30) = (   0.0000000   0.4166667  -0.5000000), wk =   0.0034722
        k(   31) = (   0.0000000  -0.5000000   0.0000000), wk =   0.0017361
        k(   32) = (   0.0000000  -0.5000000   0.1250000), wk =   0.0034722
        k(   33) = (   0.0000000  -0.5000000   0.2500000), wk =   0.0034722
        k(   34) = (   0.0000000  -0.5000000   0.3750000), wk =   0.0034722
        k(   35) = (   0.0000000  -0.5000000  -0.5000000), wk =   0.0017361
        k(   36) = (   0.0833333   0.0833333   0.0000000), wk =   0.0069444
        k(   37) = (   0.0833333   0.0833333   0.1250000), wk =   0.0138889
        k(   38) = (   0.0833333   0.0833333   0.2500000), wk =   0.0138889
        k(   39) = (   0.0833333   0.0833333   0.3750000), wk =   0.0138889
        k(   40) = (   0.0833333   0.0833333  -0.5000000), wk =   0.0069444
        k(   41) = (   0.0833333   0.1666667   0.0000000), wk =   0.0069444
        k(   42) = (   0.0833333   0.1666667   0.1250000), wk =   0.0138889
        k(   43) = (   0.0833333   0.1666667   0.2500000), wk =   0.0138889
        k(   44) = (   0.0833333   0.1666667   0.3750000), wk =   0.0138889
        k(   45) = (   0.0833333   0.1666667  -0.5000000), wk =   0.0069444
        k(   46) = (   0.0833333   0.2500000   0.0000000), wk =   0.0069444
        k(   47) = (   0.0833333   0.2500000   0.1250000), wk =   0.0138889
        k(   48) = (   0.0833333   0.2500000   0.2500000), wk =   0.0138889
        k(   49) = (   0.0833333   0.2500000   0.3750000), wk =   0.0138889
        k(   50) = (   0.0833333   0.2500000  -0.5000000), wk =   0.0069444
        k(   51) = (   0.0833333   0.3333333   0.0000000), wk =   0.0069444
        k(   52) = (   0.0833333   0.3333333   0.1250000), wk =   0.0138889
        k(   53) = (   0.0833333   0.3333333   0.2500000), wk =   0.0138889
        k(   54) = (   0.0833333   0.3333333   0.3750000), wk =   0.0138889
        k(   55) = (   0.0833333   0.3333333  -0.5000000), wk =   0.0069444
        k(   56) = (   0.0833333   0.4166667   0.0000000), wk =   0.0069444
        k(   57) = (   0.0833333   0.4166667   0.1250000), wk =   0.0138889
        k(   58) = (   0.0833333   0.4166667   0.2500000), wk =   0.0138889
        k(   59) = (   0.0833333   0.4166667   0.3750000), wk =   0.0138889
        k(   60) = (   0.0833333   0.4166667  -0.5000000), wk =   0.0069444
        k(   61) = (   0.1666667   0.1666667   0.0000000), wk =   0.0069444
        k(   62) = (   0.1666667   0.1666667   0.1250000), wk =   0.0138889
        k(   63) = (   0.1666667   0.1666667   0.2500000), wk =   0.0138889
        k(   64) = (   0.1666667   0.1666667   0.3750000), wk =   0.0138889
        k(   65) = (   0.1666667   0.1666667  -0.5000000), wk =   0.0069444
        k(   66) = (   0.1666667   0.2500000   0.0000000), wk =   0.0069444
        k(   67) = (   0.1666667   0.2500000   0.1250000), wk =   0.0138889
        k(   68) = (   0.1666667   0.2500000   0.2500000), wk =   0.0138889
        k(   69) = (   0.1666667   0.2500000   0.3750000), wk =   0.0138889
        k(   70) = (   0.1666667   0.2500000  -0.5000000), wk =   0.0069444
        k(   71) = (   0.1666667   0.3333333   0.0000000), wk =   0.0069444
        k(   72) = (   0.1666667   0.3333333   0.1250000), wk =   0.0138889
        k(   73) = (   0.1666667   0.3333333   0.2500000), wk =   0.0138889
        k(   74) = (   0.1666667   0.3333333   0.3750000), wk =   0.0138889
        k(   75) = (   0.1666667   0.3333333  -0.5000000), wk =   0.0069444
        k(   76) = (   0.1666667   0.4166667   0.0000000), wk =   0.0034722
        k(   77) = (   0.1666667   0.4166667   0.1250000), wk =   0.0069444
        k(   78) = (   0.1666667   0.4166667   0.2500000), wk =   0.0069444
        k(   79) = (   0.1666667   0.4166667   0.3750000), wk =   0.0069444
        k(   80) = (   0.1666667   0.4166667  -0.5000000), wk =   0.0034722
        k(   81) = (   0.2500000   0.2500000   0.0000000), wk =   0.0069444
        k(   82) = (   0.2500000   0.2500000   0.1250000), wk =   0.0138889
        k(   83) = (   0.2500000   0.2500000   0.2500000), wk =   0.0138889
        k(   84) = (   0.2500000   0.2500000   0.3750000), wk =   0.0138889
        k(   85) = (   0.2500000   0.2500000  -0.5000000), wk =   0.0069444
        k(   86) = (   0.2500000   0.3333333   0.0000000), wk =   0.0069444
        k(   87) = (   0.2500000   0.3333333   0.1250000), wk =   0.0138889
        k(   88) = (   0.2500000   0.3333333   0.2500000), wk =   0.0138889
        k(   89) = (   0.2500000   0.3333333   0.3750000), wk =   0.0138889
        k(   90) = (   0.2500000   0.3333333  -0.5000000), wk =   0.0069444
        k(   91) = (   0.3333333   0.3333333   0.0000000), wk =   0.0034722
        k(   92) = (   0.3333333   0.3333333   0.1250000), wk =   0.0069444
        k(   93) = (   0.3333333   0.3333333   0.2500000), wk =   0.0069444
        k(   94) = (   0.3333333   0.3333333   0.3750000), wk =   0.0069444
        k(   95) = (   0.3333333   0.3333333  -0.5000000), wk =   0.0034722
        k(   96) = (  -0.0833333  -0.0000000   0.0000000), wk =   0.0069444
        k(   97) = (  -0.0833333  -0.0000000  -0.1250000), wk =   0.0138889
        k(   98) = (  -0.0833333  -0.0000000  -0.2500000), wk =   0.0138889
        k(   99) = (  -0.0833333  -0.0000000  -0.3750000), wk =   0.0138889
        k(  100) = (  -0.0833333  -0.0000000   0.5000000), wk =   0.0069444
        k(  101) = (  -0.1666667  -0.0000000   0.0000000), wk =   0.0069444
        k(  102) = (  -0.1666667  -0.0000000  -0.1250000), wk =   0.0138889
        k(  103) = (  -0.1666667  -0.0000000  -0.2500000), wk =   0.0138889
        k(  104) = (  -0.1666667  -0.0000000  -0.3750000), wk =   0.0138889
        k(  105) = (  -0.1666667  -0.0000000   0.5000000), wk =   0.0069444
        k(  106) = (  -0.2500000   0.0000000   0.0000000), wk =   0.0069444
        k(  107) = (  -0.2500000   0.0000000  -0.1250000), wk =   0.0138889
        k(  108) = (  -0.2500000   0.0000000  -0.2500000), wk =   0.0138889
        k(  109) = (  -0.2500000   0.0000000  -0.3750000), wk =   0.0138889
        k(  110) = (  -0.2500000   0.0000000   0.5000000), wk =   0.0069444
        k(  111) = (  -0.3333333  -0.0000000   0.0000000), wk =   0.0069444
        k(  112) = (  -0.3333333  -0.0000000  -0.1250000), wk =   0.0138889
        k(  113) = (  -0.3333333  -0.0000000  -0.2500000), wk =   0.0138889
        k(  114) = (  -0.3333333  -0.0000000  -0.3750000), wk =   0.0138889
        k(  115) = (  -0.3333333  -0.0000000   0.5000000), wk =   0.0069444
        k(  116) = (  -0.4166667   0.0000000   0.0000000), wk =   0.0069444
        k(  117) = (  -0.4166667   0.0000000  -0.1250000), wk =   0.0138889
        k(  118) = (  -0.4166667   0.0000000  -0.2500000), wk =   0.0138889
        k(  119) = (  -0.4166667   0.0000000  -0.3750000), wk =   0.0138889
        k(  120) = (  -0.4166667   0.0000000   0.5000000), wk =   0.0069444
        k(  121) = (   0.5000000   0.0000000   0.0000000), wk =   0.0034722
        k(  122) = (   0.5000000   0.0000000  -0.1250000), wk =   0.0069444
        k(  123) = (   0.5000000   0.0000000  -0.2500000), wk =   0.0069444
        k(  124) = (   0.5000000   0.0000000  -0.3750000), wk =   0.0069444
        k(  125) = (   0.5000000   0.0000000   0.5000000), wk =   0.0034722
        k(  126) = (   0.1666667  -0.0833333   0.0000000), wk =   0.0034722
        k(  127) = (   0.1666667  -0.0833333  -0.1250000), wk =   0.0069444
        k(  128) = (   0.1666667  -0.0833333  -0.2500000), wk =   0.0069444
        k(  129) = (   0.1666667  -0.0833333  -0.3750000), wk =   0.0069444
        k(  130) = (   0.1666667  -0.0833333   0.5000000), wk =   0.0034722
        k(  131) = (  -0.1666667  -0.0833333   0.0000000), wk =   0.0069444
        k(  132) = (   0.2500000  -0.1666667   0.0000000), wk =   0.0069444
        k(  133) = (  -0.1666667  -0.0833333  -0.1250000), wk =   0.0138889
        k(  134) = (   0.2500000  -0.1666667  -0.1250000), wk =   0.0138889
        k(  135) = (  -0.1666667  -0.0833333  -0.2500000), wk =   0.0138889
        k(  136) = (   0.2500000  -0.1666667  -0.2500000), wk =   0.0138889
        k(  137) = (  -0.1666667  -0.0833333  -0.3750000), wk =   0.0138889
        k(  138) = (   0.2500000  -0.1666667  -0.3750000), wk =   0.0138889
        k(  139) = (  -0.1666667  -0.0833333   0.5000000), wk =   0.0069444
        k(  140) = (   0.2500000  -0.1666667   0.5000000), wk =   0.0069444
        k(  141) = (  -0.2500000  -0.0833333   0.0000000), wk =   0.0069444
        k(  142) = (   0.3333333  -0.2500000   0.0000000), wk =   0.0069444
        k(  143) = (  -0.2500000  -0.0833333  -0.1250000), wk =   0.0138889
        k(  144) = (   0.3333333  -0.2500000  -0.1250000), wk =   0.0138889
        k(  145) = (  -0.2500000  -0.0833333  -0.2500000), wk =   0.0138889
        k(  146) = (   0.3333333  -0.2500000  -0.2500000), wk =   0.0138889
        k(  147) = (  -0.2500000  -0.0833333  -0.3750000), wk =   0.0138889
        k(  148) = (   0.3333333  -0.2500000  -0.3750000), wk =   0.0138889
        k(  149) = (  -0.2500000  -0.0833333   0.5000000), wk =   0.0069444
        k(  150) = (   0.3333333  -0.2500000   0.5000000), wk =   0.0069444
        k(  151) = (  -0.3333333  -0.0833333   0.0000000), wk =   0.0069444
        k(  152) = (   0.4166667  -0.3333333   0.0000000), wk =   0.0069444
        k(  153) = (  -0.3333333  -0.0833333  -0.1250000), wk =   0.0138889
        k(  154) = (   0.4166667  -0.3333333  -0.1250000), wk =   0.0138889
        k(  155) = (  -0.3333333  -0.0833333  -0.2500000), wk =   0.0138889
        k(  156) = (   0.4166667  -0.3333333  -0.2500000), wk =   0.0138889
        k(  157) = (  -0.3333333  -0.0833333  -0.3750000), wk =   0.0138889
        k(  158) = (   0.4166667  -0.3333333  -0.3750000), wk =   0.0138889
        k(  159) = (  -0.3333333  -0.0833333   0.5000000), wk =   0.0069444
        k(  160) = (   0.4166667  -0.3333333   0.5000000), wk =   0.0069444
        k(  161) = (  -0.4166667  -0.0833333   0.0000000), wk =   0.0069444
        k(  162) = (   0.5000000  -0.4166667   0.0000000), wk =   0.0069444
        k(  163) = (  -0.4166667  -0.0833333  -0.1250000), wk =   0.0138889
        k(  164) = (   0.5000000  -0.4166667  -0.1250000), wk =   0.0138889
        k(  165) = (  -0.4166667  -0.0833333  -0.2500000), wk =   0.0138889
        k(  166) = (   0.5000000  -0.4166667  -0.2500000), wk =   0.0138889
        k(  167) = (  -0.4166667  -0.0833333  -0.3750000), wk =   0.0138889
        k(  168) = (   0.5000000  -0.4166667  -0.3750000), wk =   0.0138889
        k(  169) = (  -0.4166667  -0.0833333   0.5000000), wk =   0.0069444
        k(  170) = (   0.5000000  -0.4166667   0.5000000), wk =   0.0069444
        k(  171) = (   0.3333333  -0.1666667   0.0000000), wk =   0.0034722
        k(  172) = (   0.3333333  -0.1666667  -0.1250000), wk =   0.0069444
        k(  173) = (   0.3333333  -0.1666667  -0.2500000), wk =   0.0069444
        k(  174) = (   0.3333333  -0.1666667  -0.3750000), wk =   0.0069444
        k(  175) = (   0.3333333  -0.1666667   0.5000000), wk =   0.0034722
        k(  176) = (  -0.2500000  -0.1666667   0.0000000), wk =   0.0069444
        k(  177) = (   0.4166667  -0.2500000   0.0000000), wk =   0.0069444
        k(  178) = (  -0.2500000  -0.1666667  -0.1250000), wk =   0.0138889
        k(  179) = (   0.4166667  -0.2500000  -0.1250000), wk =   0.0138889
        k(  180) = (  -0.2500000  -0.1666667  -0.2500000), wk =   0.0138889
        k(  181) = (   0.4166667  -0.2500000  -0.2500000), wk =   0.0138889
        k(  182) = (  -0.2500000  -0.1666667  -0.3750000), wk =   0.0138889
        k(  183) = (   0.4166667  -0.2500000  -0.3750000), wk =   0.0138889
        k(  184) = (  -0.2500000  -0.1666667   0.5000000), wk =   0.0069444
        k(  185) = (   0.4166667  -0.2500000   0.5000000), wk =   0.0069444
        k(  186) = (  -0.3333333  -0.1666667   0.0000000), wk =   0.0069444
        k(  187) = (   0.5000000  -0.3333333   0.0000000), wk =   0.0069444
        k(  188) = (  -0.3333333  -0.1666667  -0.1250000), wk =   0.0138889
        k(  189) = (   0.5000000  -0.3333333  -0.1250000), wk =   0.0138889
        k(  190) = (  -0.3333333  -0.1666667  -0.2500000), wk =   0.0138889
        k(  191) = (   0.5000000  -0.3333333  -0.2500000), wk =   0.0138889
        k(  192) = (  -0.3333333  -0.1666667  -0.3750000), wk =   0.0138889
        k(  193) = (   0.5000000  -0.3333333  -0.3750000), wk =   0.0138889
        k(  194) = (  -0.3333333  -0.1666667   0.5000000), wk =   0.0069444
        k(  195) = (   0.5000000  -0.3333333   0.5000000), wk =   0.0069444
        k(  196) = (  -0.4166667  -0.1666667   0.0000000), wk =   0.0069444
        k(  197) = (  -0.4166667  -0.1666667  -0.1250000), wk =   0.0138889
        k(  198) = (  -0.4166667  -0.1666667  -0.2500000), wk =   0.0138889
        k(  199) = (  -0.4166667  -0.1666667  -0.3750000), wk =   0.0138889
        k(  200) = (  -0.4166667  -0.1666667   0.5000000), wk =   0.0069444
        k(  201) = (   0.5000000  -0.2500000   0.0000000), wk =   0.0034722
        k(  202) = (   0.5000000  -0.2500000  -0.1250000), wk =   0.0069444
        k(  203) = (   0.5000000  -0.2500000  -0.2500000), wk =   0.0069444
        k(  204) = (   0.5000000  -0.2500000  -0.3750000), wk =   0.0069444
        k(  205) = (   0.5000000  -0.2500000   0.5000000), wk =   0.0034722
        k(  206) = (  -0.3333333  -0.2500000   0.0000000), wk =   0.0069444
        k(  207) = (   0.5833333  -0.3333333   0.0000000), wk =   0.0069444
        k(  208) = (  -0.3333333  -0.2500000  -0.1250000), wk =   0.0138889
        k(  209) = (   0.5833333  -0.3333333  -0.1250000), wk =   0.0138889
        k(  210) = (  -0.3333333  -0.2500000  -0.2500000), wk =   0.0138889
        k(  211) = (   0.5833333  -0.3333333  -0.2500000), wk =   0.0138889
        k(  212) = (  -0.3333333  -0.2500000  -0.3750000), wk =   0.0138889
        k(  213) = (   0.5833333  -0.3333333  -0.3750000), wk =   0.0138889
        k(  214) = (  -0.3333333  -0.2500000   0.5000000), wk =   0.0069444
        k(  215) = (   0.5833333  -0.3333333   0.5000000), wk =   0.0069444

     Dense  grid:    52789 G-vectors     FFT dimensions: (  36,  36, 120)

     Smooth grid:    18701 G-vectors     FFT dimensions: (  24,  24,  80)

     Dynamical RAM for                 wfc:       0.43 MB

     Dynamical RAM for     wfc (w. buffer):      92.19 MB

     Dynamical RAM for           str. fact:       0.81 MB

     Dynamical RAM for           local pot:       0.00 MB

     Dynamical RAM for          nlocal pot:       1.14 MB

     Dynamical RAM for                qrad:       0.50 MB

     Dynamical RAM for          rho,v,vnew:       5.98 MB

     Dynamical RAM for               rhoin:       1.99 MB

     Dynamical RAM for            rho*nmix:      12.89 MB

     Dynamical RAM for           G-vectors:       3.16 MB

     Dynamical RAM for          h,s,v(r/c):       0.03 MB

     Dynamical RAM for          <psi|beta>:       0.01 MB

     Dynamical RAM for                 psi:       0.85 MB

     Dynamical RAM for                hpsi:       0.85 MB

     Dynamical RAM for                spsi:       0.85 MB

     Dynamical RAM for      wfcinit/wfcrot:       1.14 MB

     Dynamical RAM for           addusdens:      37.86 MB

     Dynamical RAM for          addusforce:      43.10 MB

     Dynamical RAM for         addusstress:      40.27 MB

     Estimated static dynamical RAM per process >     126.20 MB

     Estimated max dynamical RAM per process >     169.30 MB

     Check: negative core charge=   -0.000002

     Initial potential from superposition of free atoms

     starting charge   15.99983, renormalised to   16.00000
     Starting wfcs are   16 randomized atomic wfcs

     total cpu time spent up to now is       26.6 secs

     Self-consistent Calculation

     iteration #  1     ecut=    60.00 Ry     beta= 0.70
     Davidson diagonalization with overlap
     ethr =  1.00E-02,  avg # of iterations =  2.8

     total cpu time spent up to now is      143.0 secs

     total energy              =     -49.66374785 Ry
     estimated scf accuracy    <       0.37638119 Ry

     iteration #  2     ecut=    60.00 Ry     beta= 0.70
     Davidson diagonalization with overlap
     ethr =  2.35E-03,  avg # of iterations =  2.5

     total cpu time spent up to now is      251.6 secs

     total energy              =     -49.71439707 Ry
     estimated scf accuracy    <       0.00432021 Ry

     iteration #  3     ecut=    60.00 Ry     beta= 0.70
     Davidson diagonalization with overlap
     ethr =  2.70E-05,  avg # of iterations =  7.0

     total cpu time spent up to now is      348.6 secs

     total energy              =     -49.71480665 Ry
     estimated scf accuracy    <       0.00030740 Ry

     iteration #  4     ecut=    60.00 Ry     beta= 0.70
     Davidson diagonalization with overlap
     ethr =  1.92E-06,  avg # of iterations =  4.0

     total cpu time spent up to now is      415.9 secs

     total energy              =     -49.71482502 Ry
     estimated scf accuracy    <       0.00000209 Ry

     iteration #  5     ecut=    60.00 Ry     beta= 0.70
     Davidson diagonalization with overlap
     ethr =  1.30E-08,  avg # of iterations =  2.9

     total cpu time spent up to now is      451.5 secs

     total energy              =     -49.71482621 Ry
     estimated scf accuracy    <       0.00000006 Ry

     iteration #  6     ecut=    60.00 Ry     beta= 0.70
     Davidson diagonalization with overlap
     ethr =  3.46E-10,  avg # of iterations =  2.3

     total cpu time spent up to now is      481.1 secs

     total energy              =     -49.71482623 Ry
     estimated scf accuracy    <          1.2E-09 Ry

     iteration #  7     ecut=    60.00 Ry     beta= 0.70
     Davidson diagonalization with overlap
     ethr =  7.26E-12,  avg # of iterations =  2.8

     total cpu time spent up to now is      514.3 secs

     End of self-consistent calculation

          k = 0.0000 0.0000 0.0000 (  2319 PWs)   bands (ev):

   -14.7008 -14.6555  -3.0628  -2.4987   1.7284   1.7298   1.7326   1.7340
     7.9704  11.4896  13.0920  13.0980

     occupation numbers 
     1.0000   1.0000   1.0000   1.0000   1.0000   1.0000   1.0000   1.0000
    -0.0000  -0.0000  -0.0000  -0.0000

          k = 0.0000 0.0000 0.0371 (  2319 PWs)   bands (ev):

   -14.6991 -14.6573  -3.0431  -2.5223   1.7284   1.7297   1.7327   1.7340
     8.0626  11.2430  13.0922  13.0980

     occupation numbers 
     1.0000   1.0000   1.0000   1.0000   1.0000   1.0000   1.0000   1.0000
    -0.0000  -0.0000  -0.0000  -0.0000

          k = 0.0000 0.0000 0.0741 (  2319 PWs)   bands (ev):

   -14.6943 -14.6622  -2.9865  -2.5884   1.7286   1.7295   1.7328   1.7338
     8.3330  10.6640  13.0930  13.0975

     occupation numbers 
     1.0000   1.0000   1.0000   1.0000   1.0000   1.0000   1.0000   1.0000
    -0.0000  -0.0000  -0.0000  -0.0000

          k = 0.0000 0.0000 0.1112 (  2319 PWs)   bands (ev):

   -14.6870 -14.6696  -2.8998  -2.6846   1.7288   1.7293   1.7331   1.7336
     8.7639   9.9827  13.0947  13.0975

     occupation numbers 
     1.0000   1.0000   1.0000   1.0000   1.0000   1.0000   1.0000   1.0000
    -0.0000  -0.0000  -0.0000  -0.0000

          k = 0.0000 0.0000-0.1483 (  2294 PWs)   bands (ev):

   -14.6783 -14.6783  -2.7941  -2.7941   1.7291   1.7291   1.7334   1.7334
     9.3273   9.3273  13.0952  13.0961

     occupation numbers 
     1.0000   1.0000   1.0000   1.0000   1.0000   1.0000   1.0000   1.0000
    -0.0000  -0.0000  -0.0000  -0.0000

          k = 0.0000 0.0962 0.0000 (  2326 PWs)   bands (ev):

   -14.5373 -14.4926  -2.8653  -2.3061   1.0792   1.0823   1.3952   1.3976
     8.1829  11.6844  13.1497  13.1745

     occupation numbers 
     1.0000   1.0000   1.0000   1.0000   1.0000   1.0000   1.0000   1.0000
    -0.0000  -0.0000  -0.0000  -0.0000

          k = 0.0000 0.0962 0.0371 (  2327 PWs)   bands (ev):

   -14.5357 -14.4944  -2.8458  -2.3294   1.0793   1.0822   1.3953   1.3975
     8.2746  11.4384  13.1540  13.1741

     occupation numbers 
     1.0000   1.0000   1.0000   1.0000   1.0000   1.0000   1.0000   1.0000
    -0.0000  -0.0000  -0.0000  -0.0000

          k = 0.0000 0.0962 0.0741 (  2329 PWs)   bands (ev):

   -14.5309 -14.4993  -2.7896  -2.3949   1.0796   1.0818   1.3956   1.3973
     8.5436  10.8621  13.1604  13.1730

     occupation numbers 
     1.0000   1.0000   1.0000   1.0000   1.0000   1.0000   1.0000   1.0000
    -0.0000  -0.0000  -0.0000  -0.0000

          k = 0.0000 0.0962 0.1112 (  2325 PWs)   bands (ev):

   -14.5237 -14.5065  -2.7036  -2.4902   1.0801   1.0813   1.3960   1.3969
     8.9722  10.1846  13.1650  13.1710

     occupation numbers 
     1.0000   1.0000   1.0000   1.0000   1.0000   1.0000   1.0000   1.0000
    -0.0000  -0.0000  -0.0000  -0.0000

          k = 0.0000 0.0962-0.1483 (  2320 PWs)   bands (ev):

   -14.5151 -14.5151  -2.5988  -2.5988   1.0807   1.0807   1.3965   1.3965
     9.5327   9.5327  13.1684  13.1684

     occupation numbers 
     1.0000   1.0000   1.0000   1.0000   1.0000   1.0000   1.0000   1.0000
    -0.0000  -0.0000  -0.0000  -0.0000

          k = 0.0000 0.1925 0.0000 (  2332 PWs)   bands (ev):

   -14.0486 -14.0057  -2.2779  -1.7337  -0.5543  -0.5475   0.6053   0.6090
     8.8207  12.2518  13.0741  13.1284

     occupation numbers 
     1.0000   1.0000   1.0000   1.0000   1.0000   1.0000   1.0000   1.0000
    -0.0000  -0.0000  -0.0000  -0.0000

          k = 0.0000 0.1925 0.0371 (  2333 PWs)   bands (ev):

   -14.0470 -14.0073  -2.2589  -1.7564  -0.5541  -0.5477   0.6055   0.6089
     8.9108  12.0101  13.0855  13.1277

     occupation numbers 
     1.0000   1.0000   1.0000   1.0000   1.0000   1.0000   1.0000   1.0000
    -0.0000  -0.0000  -0.0000  -0.0000

          k = 0.0000 0.1925 0.0741 (  2327 PWs)   bands (ev):

   -14.0424 -14.0120  -2.2041  -1.8200  -0.5533  -0.5485   0.6059   0.6085
     9.1751  11.4474  13.0997  13.1260

     occupation numbers 
     1.0000   1.0000   1.0000   1.0000   1.0000   1.0000   1.0000   1.0000
    -0.0000  -0.0000  -0.0000  -0.0000

          k = 0.0000 0.1925 0.1112 (  2331 PWs)   bands (ev):

   -14.0355 -14.0190  -2.1202  -1.9127  -0.5522  -0.5496   0.6065   0.6079
     9.5961  10.7850  13.1091  13.1214

     occupation numbers 
     1.0000   1.0000   1.0000   1.0000   1.0000   1.0000   1.0000   1.0000
    -0.0000  -0.0000  -0.0000  -0.0000

          k = 0.0000 0.1925-0.1483 (  2330 PWs)   bands (ev):

   -14.0273 -14.0273  -2.0182  -2.0182  -0.5509  -0.5509   0.6072   0.6072
    10.1462  10.1462  13.1159  13.1159

     occupation numbers 
     1.0000   1.0000   1.0000   1.0000   1.0000   1.0000   1.0000   1.0000
    -0.0000  -0.0000  -0.0000  -0.0000

          k = 0.0000 0.2887 0.0000 (  2318 PWs)   bands (ev):

   -13.2405 -13.2003  -2.6470  -2.6356  -1.3185  -0.8022  -0.2718  -0.2673
     9.8812  11.9179  12.0373  12.7847

     occupation numbers 
     1.0000   1.0000   1.0000   1.0000   1.0000   1.0000   1.0000   1.0000
    -0.0000  -0.0000  -0.0000  -0.0000

          k = 0.0000 0.2887 0.0371 (  2322 PWs)   bands (ev):

   -13.2390 -13.2019  -2.6466  -2.6360  -1.3004  -0.8236  -0.2716  -0.2675
     9.9670  11.9178  12.0268  12.7670

     occupation numbers 
     1.0000   1.0000   1.0000   1.0000   1.0000   1.0000   1.0000   1.0000
    -0.0000  -0.0000  -0.0000  -0.0000

          k = 0.0000 0.2887 0.0741 (  2335 PWs)   bands (ev):

   -13.2347 -13.2063  -2.6454  -2.6373  -1.2482  -0.8838  -0.2711  -0.2680
    10.2181  11.8840  12.0061  12.5399

     occupation numbers 
     1.0000   1.0000   1.0000   1.0000   1.0000   1.0000   1.0000   1.0000
    -0.0000  -0.0000  -0.0000  -0.0000

          k = 0.0000 0.2887 0.1112 (  2335 PWs)   bands (ev):

   -13.2282 -13.2128  -2.6435  -2.6391  -1.1684  -0.9715  -0.2704  -0.2687
    10.6144  11.6273  12.0190  12.1908

     occupation numbers 
     1.0000   1.0000   1.0000   1.0000   1.0000   1.0000   1.0000   1.0000
    -0.0000  -0.0000  -0.0000  -0.0000

          k = 0.0000 0.2887-0.1483 (  2344 PWs)   bands (ev):

   -13.2205 -13.2205  -2.6413  -2.6413  -1.0716  -1.0716  -0.2696  -0.2696
    11.1172  11.1172  12.0683  12.0683

     occupation numbers 
     1.0000   1.0000   1.0000   1.0000   1.0000   1.0000   1.0000   1.0000
    -0.0000  -0.0000  -0.0000  -0.0000

          k = 0.0000 0.3849 0.0000 (  2338 PWs)   bands (ev):

   -12.1252 -12.0887  -4.8441  -4.8277  -1.0031  -0.9982  -0.0338   0.4340
     9.5901   9.8061  11.3476  12.4528

     occupation numbers 
     1.0000   1.0000   1.0000   1.0000   1.0000   1.0000   1.0000   1.0000
    -0.0000  -0.0000  -0.0000  -0.0000

          k = 0.0000 0.3849 0.0371 (  2342 PWs)   bands (ev):

   -12.1238 -12.0901  -4.8435  -4.8283  -1.0029  -0.9984  -0.0172   0.4148
     9.5955   9.7955  11.4339  12.4532

     occupation numbers 
     1.0000   1.0000   1.0000   1.0000   1.0000   1.0000   1.0000   1.0000
    -0.0000  -0.0000  -0.0000  -0.0000

          k = 0.0000 0.3849 0.0741 (  2338 PWs)   bands (ev):

   -12.1199 -12.0941  -4.8417  -4.8300  -1.0024  -0.9989   0.0304   0.3608
     9.6127   9.7666  11.6819  12.4527

     occupation numbers 
     1.0000   1.0000   1.0000   1.0000   1.0000   1.0000   1.0000   1.0000
    -0.0000  -0.0000  -0.0000  -0.0000

          k = 0.0000 0.3849 0.1112 (  2329 PWs)   bands (ev):

   -12.1140 -12.1000  -4.8390  -4.8327  -1.0016  -0.9997   0.1031   0.2817
     9.6424   9.7261  12.0518  12.4421

     occupation numbers 
     1.0000   1.0000   1.0000   1.0000   1.0000   1.0000   1.0000   1.0000
    -0.0000  -0.0000  -0.0000  -0.0000

          k = 0.0000 0.3849-0.1483 (  2336 PWs)   bands (ev):

   -12.1070 -12.1070  -4.8359  -4.8359  -1.0007  -1.0007   0.1911   0.1911
     9.6821   9.6821  12.3700  12.3703

     occupation numbers 
     1.0000   1.0000   1.0000   1.0000   1.0000   1.0000   1.0000   1.0000
    -0.0000  -0.0000  -0.0000  -0.0000

          k = 0.0000 0.4811 0.0000 (  2338 PWs)   bands (ev):

   -10.7338 -10.7022  -6.9374  -6.9162  -1.4748  -1.4696   1.4278   1.7954
     7.4403   7.7126  12.2024  12.2596

     occupation numbers 
     1.0000   1.0000   1.0000   1.0000   1.0000   1.0000   1.0000   1.0000
    -0.0000  -0.0000  -0.0000  -0.0000

          k = 0.0000 0.4811 0.0371 (  2330 PWs)   bands (ev):

   -10.7327 -10.7034  -6.9366  -6.9171  -1.4746  -1.4698   1.4412   1.7808
     7.4487   7.7004  12.2050  12.2580

     occupation numbers 
     1.0000   1.0000   1.0000   1.0000   1.0000   1.0000   1.0000   1.0000
    -0.0000  -0.0000  -0.0000  -0.0000

          k = 0.0000 0.4811 0.0741 (  2333 PWs)   bands (ev):

   -10.7293 -10.7069  -6.9343  -6.9194  -1.4740  -1.4704   1.4795   1.7393
     7.4735   7.6661  12.2123  12.2530

     occupation numbers 
     1.0000   1.0000   1.0000   1.0000   1.0000   1.0000   1.0000   1.0000
    -0.0000  -0.0000  -0.0000  -0.0000

          k = 0.0000 0.4811 0.1112 (  2331 PWs)   bands (ev):

   -10.7242 -10.7120  -6.9309  -6.9228  -1.4732  -1.4712   1.5375   1.6781
     7.5130   7.6173  12.2225  12.2446

     occupation numbers 
     1.0000   1.0000   1.0000   1.0000   1.0000   1.0000   1.0000   1.0000
    -0.0000  -0.0000  -0.0000  -0.0000

          k = 0.0000 0.4811-0.1483 (  2342 PWs)   bands (ev):

   -10.7181 -10.7181  -6.9269  -6.9269  -1.4722  -1.4722   1.6071   1.6071
     7.5632   7.5632  12.2339  12.2339

     occupation numbers 
     1.0000   1.0000   1.0000   1.0000   1.0000   1.0000   1.0000   1.0000
    -0.0000  -0.0000  -0.0000  -0.0000

          k = 0.0000-0.5774 0.0000 (  2340 PWs)   bands (ev):

    -9.4723  -9.4574  -8.4279  -8.4160  -1.6367  -1.6315   2.3578   2.5306
     6.3736   6.6113  12.1202  12.1862

     occupation numbers 
     1.0000   1.0000   1.0000   1.0000   1.0000   1.0000   1.0000   1.0000
    -0.0000  -0.0000  -0.0000  -0.0000

          k = 0.0000-0.5774 0.0371 (  2330 PWs)   bands (ev):

    -9.4717  -9.4579  -8.4274  -8.4164  -1.6365  -1.6317   2.3649   2.5246
     6.3797   6.5994  12.1227  12.1836

     occupation numbers 
     1.0000   1.0000   1.0000   1.0000   1.0000   1.0000   1.0000   1.0000
    -0.0000  -0.0000  -0.0000  -0.0000

          k = 0.0000-0.5774 0.0741 (  2338 PWs)   bands (ev):

    -9.4701  -9.4595  -8.4262  -8.4178  -1.6360  -1.6323   2.3846   2.5070
     6.3983   6.5665  12.1298  12.1764

     occupation numbers 
     1.0000   1.0000   1.0000   1.0000   1.0000   1.0000   1.0000   1.0000
    -0.0000  -0.0000  -0.0000  -0.0000

          k = 0.0000-0.5774 0.1112 (  2342 PWs)   bands (ev):

    -9.4676  -9.4619  -8.4244  -8.4198  -1.6351  -1.6332   2.4138   2.4801
     6.4297   6.5208  12.1404  12.1656

     occupation numbers 
     1.0000   1.0000   1.0000   1.0000   1.0000   1.0000   1.0000   1.0000
    -0.0000  -0.0000  -0.0000  -0.0000

          k = 0.0000-0.5774-0.1483 (  2356 PWs)   bands (ev):

    -9.4648  -9.4648  -8.4221  -8.4221  -1.6342  -1.6342   2.4474   2.4474
     6.4723   6.4723  12.1530  12.1530

     occupation numbers 
     1.0000   1.0000   1.0000   1.0000   1.0000   1.0000   1.0000   1.0000
    -0.0000  -0.0000  -0.0000  -0.0000

          k = 0.0833 0.1443 0.0000 (  2321 PWs)   bands (ev):

   -14.2112 -14.1677  -2.4728  -1.9234   0.0492   0.0525   0.7206   0.7228
     8.6085  12.0689  13.4279  13.4779

     occupation numbers 
     1.0000   1.0000   1.0000   1.0000   1.0000   1.0000   1.0000   1.0000
    -0.0000  -0.0000  -0.0000  -0.0000

          k = 0.0833 0.1443 0.0371 (  2324 PWs)   bands (ev):

   -14.2096 -14.1694  -2.4536  -1.9464   0.0494   0.0523   0.7207   0.7226
     8.6992  11.8255  13.4375  13.4772

     occupation numbers 
     1.0000   1.0000   1.0000   1.0000   1.0000   1.0000   1.0000   1.0000
    -0.0000  -0.0000  -0.0000  -0.0000

          k = 0.0833 0.1443 0.0741 (  2332 PWs)   bands (ev):

   -14.2049 -14.1741  -2.3983  -2.0107   0.0497   0.0520   0.7209   0.7224
     8.9652  11.2565  13.4515  13.4751

     occupation numbers 
     1.0000   1.0000   1.0000   1.0000   1.0000   1.0000   1.0000   1.0000
    -0.0000  -0.0000  -0.0000  -0.0000

          k = 0.0833 0.1443 0.1112 (  2326 PWs)   bands (ev):

   -14.1979 -14.1812  -2.3137  -2.1042   0.0503   0.0515   0.7212   0.7220
     9.3891  10.5874  13.4608  13.4717

     occupation numbers 
     1.0000   1.0000   1.0000   1.0000   1.0000   1.0000   1.0000   1.0000
    -0.0000  -0.0000  -0.0000  -0.0000

          k = 0.0833 0.1443-0.1483 (  2332 PWs)   bands (ev):

   -14.1896 -14.1896  -2.2108  -2.2108   0.0509   0.0509   0.7216   0.7216
     9.9433   9.9433  13.4671  13.4672

     occupation numbers 
     1.0000   1.0000   1.0000   1.0000   1.0000   1.0000   1.0000   1.0000
    -0.0000  -0.0000  -0.0000  -0.0000

          k = 0.0833 0.2406 0.0000 (  2327 PWs)   bands (ev):

   -13.5628 -13.5216  -1.6983  -1.6573  -1.6497  -1.1702  -0.2738  -0.2694
     9.4595  12.6986  12.8139  13.0095

     occupation numbers 
     1.0000   1.0000   1.0000   1.0000   1.0000   1.0000   1.0000   1.0000
    -0.0000  -0.0000  -0.0000  -0.0000

          k = 0.0833 0.2406 0.0371 (  2328 PWs)   bands (ev):

   -13.5613 -13.5231  -1.6798  -1.6570  -1.6500  -1.1922  -0.2736  -0.2696
     9.5478  12.5280  12.8111  12.9454

     occupation numbers 
     1.0000   1.0000   1.0000   1.0000   1.0000   1.0000   1.0000   1.0000
    -0.0000  -0.0000  -0.0000  -0.0000

          k = 0.0833 0.2406 0.0741 (  2326 PWs)   bands (ev):

   -13.5569 -13.5277  -1.6562  -1.6509  -1.6265  -1.2538  -0.2731  -0.2700
     9.8066  12.0156  12.8181  12.9000

     occupation numbers 
     1.0000   1.0000   1.0000   1.0000   1.0000   1.0000   1.0000   1.0000
    -0.0000  -0.0000  -0.0000  -0.0000

          k = 0.0833 0.2406 0.1112 (  2333 PWs)   bands (ev):

   -13.5502 -13.5344  -1.6550  -1.6521  -1.5450  -1.3435  -0.2725  -0.2708
    10.2188  11.3782  12.8331  12.8746

     occupation numbers 
     1.0000   1.0000   1.0000   1.0000   1.0000   1.0000   1.0000   1.0000
    -0.0000  -0.0000  -0.0000  -0.0000

          k = 0.0833 0.2406-0.1483 (  2328 PWs)   bands (ev):

   -13.5423 -13.5423  -1.6535  -1.6535  -1.4460  -1.4460  -0.2716  -0.2716
    10.7564  10.7564  12.8526  12.8526

     occupation numbers 
     1.0000   1.0000   1.0000   1.0000   1.0000   1.0000   1.0000   1.0000
    -0.0000  -0.0000  -0.0000  -0.0000

          k = 0.0833 0.3368 0.0000 (  2329 PWs)   bands (ev):

   -12.6009 -12.5629  -3.7248  -3.7117  -1.1580  -1.1520  -0.5705  -0.0791
    10.6306  10.7291  10.7826  13.3081

     occupation numbers 
     1.0000   1.0000   1.0000   1.0000   1.0000   1.0000   1.0000   1.0000
    -0.0000  -0.0000  -0.0000  -0.0000

          k = 0.0833 0.3368 0.0371 (  2328 PWs)   bands (ev):

   -12.5995 -12.5644  -3.7243  -3.7122  -1.1578  -1.1522  -0.5531  -0.0994
    10.6213  10.7658  10.8390  13.2975

     occupation numbers 
     1.0000   1.0000   1.0000   1.0000   1.0000   1.0000   1.0000   1.0000
    -0.0000  -0.0000  -0.0000  -0.0000

          k = 0.0833 0.3368 0.0741 (  2330 PWs)   bands (ev):

   -12.5954 -12.5685  -3.7229  -3.7136  -1.1572  -1.1529  -0.5033  -0.1564
    10.6284  10.7486  11.0952  13.1308

     occupation numbers 
     1.0000   1.0000   1.0000   1.0000   1.0000   1.0000   1.0000   1.0000
    -0.0000  -0.0000  -0.0000  -0.0000

          k = 0.0833 0.3368 0.1112 (  2329 PWs)   bands (ev):

   -12.5893 -12.5747  -3.7208  -3.7157  -1.1562  -1.1539  -0.4272  -0.2397
    10.6525  10.7193  11.4924  12.5865

     occupation numbers 
     1.0000   1.0000   1.0000   1.0000   1.0000   1.0000   1.0000   1.0000
    -0.0000  -0.0000  -0.0000  -0.0000

          k = 0.0833 0.3368-0.1483 (  2332 PWs)   bands (ev):

   -12.5820 -12.5820  -3.7183  -3.7183  -1.1551  -1.1551  -0.3349  -0.3349
    10.6851  10.6851  12.0041  12.0042

     occupation numbers 
     1.0000   1.0000   1.0000   1.0000   1.0000   1.0000   1.0000   1.0000
    -0.0000  -0.0000  -0.0000  -0.0000

          k = 0.0833 0.4330 0.0000 (  2347 PWs)   bands (ev):

   -11.3445 -11.3107  -5.8412  -5.8229  -1.7915  -1.7847   0.8330   1.2582
     8.3976   8.6291  12.3870  13.0267

     occupation numbers 
     1.0000   1.0000   1.0000   1.0000   1.0000   1.0000   1.0000   1.0000
    -0.0000  -0.0000  -0.0000  -0.0000

          k = 0.0833 0.4330 0.0371 (  2342 PWs)   bands (ev):

   -11.3432 -11.3119  -5.8405  -5.8236  -1.7912  -1.7850   0.8482   1.2409
     8.4050   8.6189  12.4636  13.0284

     occupation numbers 
     1.0000   1.0000   1.0000   1.0000   1.0000   1.0000   1.0000   1.0000
    -0.0000  -0.0000  -0.0000  -0.0000

          k = 0.0833 0.4330 0.0741 (  2338 PWs)   bands (ev):

   -11.3396 -11.3156  -5.8386  -5.8256  -1.7905  -1.7857   0.8919   1.1922
     8.4266   8.5906  12.6777  13.0324

     occupation numbers 
     1.0000   1.0000   1.0000   1.0000   1.0000   1.0000   1.0000   1.0000
    -0.0000  -0.0000  -0.0000  -0.0000

          k = 0.0833 0.4330 0.1112 (  2343 PWs)   bands (ev):

   -11.3341 -11.3212  -5.8356  -5.8286  -1.7894  -1.7868   0.9583   1.1207
     8.4609   8.5498  12.9295  13.0335

     occupation numbers 
     1.0000   1.0000   1.0000   1.0000   1.0000   1.0000   1.0000   1.0000
    -0.0000  -0.0000  -0.0000  -0.0000

          k = 0.0833 0.4330-0.1483 (  2336 PWs)   bands (ev):

   -11.3276 -11.3276  -5.8321  -5.8321  -1.7881  -1.7881   1.0385   1.0385
     8.5040   8.5040  13.0183  13.0183

     occupation numbers 
     1.0000   1.0000   1.0000   1.0000   1.0000   1.0000   1.0000   1.0000
    -0.0000  -0.0000  -0.0000  -0.0000

          k = 0.0833 0.5292 0.0000 (  2345 PWs)   bands (ev):

    -9.8700  -9.8429  -7.7742  -7.7529  -2.1192  -2.1121   2.2086   2.4745
     6.6419   6.8809  12.8502  12.9252

     occupation numbers 
     1.0000   1.0000   1.0000   1.0000   1.0000   1.0000   1.0000   1.0000
    -0.0000  -0.0000  -0.0000  -0.0000

          k = 0.0833 0.5292 0.0371 (  2344 PWs)   bands (ev):

    -9.8690  -9.8439  -7.7734  -7.7537  -2.1189  -2.1124   2.2187   2.4644
     6.6487   6.8697  12.8531  12.9223

     occupation numbers 
     1.0000   1.0000   1.0000   1.0000   1.0000   1.0000   1.0000   1.0000
    -0.0000  -0.0000  -0.0000  -0.0000

          k = 0.0833 0.5292 0.0741 (  2336 PWs)   bands (ev):

    -9.8660  -9.8469  -7.7711  -7.7560  -2.1182  -2.1131   2.2474   2.4356
     6.6693   6.8385  12.8612  12.9142

     occupation numbers 
     1.0000   1.0000   1.0000   1.0000   1.0000   1.0000   1.0000   1.0000
    -0.0000  -0.0000  -0.0000  -0.0000

          k = 0.0833 0.5292 0.1112 (  2335 PWs)   bands (ev):

    -9.8617  -9.8513  -7.7677  -7.7595  -2.1170  -2.1143   2.2905   2.3924
     6.7028   6.7945  12.8734  12.9021

     occupation numbers 
     1.0000   1.0000   1.0000   1.0000   1.0000   1.0000   1.0000   1.0000
    -0.0000  -0.0000  -0.0000  -0.0000

          k = 0.0833 0.5292-0.1483 (  2334 PWs)   bands (ev):

    -9.8565  -9.8565  -7.7636  -7.7636  -2.1156  -2.1156   2.3414   2.3414
     6.7465   6.7465  12.8877  12.8877

     occupation numbers 
     1.0000   1.0000   1.0000   1.0000   1.0000   1.0000   1.0000   1.0000
    -0.0000  -0.0000  -0.0000  -0.0000

          k = 0.1667 0.2887 0.0000 (  2338 PWs)   bands (ev):

   -12.7606 -12.7221  -2.9836  -2.9775  -1.6288  -1.6244  -0.7519  -0.2530
    10.5214  11.0955  11.1959  13.6809

     occupation numbers 
     1.0000   1.0000   1.0000   1.0000   1.0000   1.0000   1.0000   1.0000
    -0.0000  -0.0000  -0.0000  -0.0000

          k = 0.1667 0.2887 0.0371 (  2329 PWs)   bands (ev):

   -12.7592 -12.7235  -2.9834  -2.9777  -1.6286  -1.6245  -0.7344  -0.2737
    10.6060  11.0993  11.1921  13.4682

     occupation numbers 
     1.0000   1.0000   1.0000   1.0000   1.0000   1.0000   1.0000   1.0000
    -0.0000  -0.0000  -0.0000  -0.0000

          k = 0.1667 0.2887 0.0741 (  2322 PWs)   bands (ev):

   -12.7550 -12.7278  -2.9827  -2.9784  -1.6281  -1.6250  -0.6838  -0.3316
    10.8542  11.1100  11.1813  12.9627

     occupation numbers 
     1.0000   1.0000   1.0000   1.0000   1.0000   1.0000   1.0000   1.0000
    -0.0000  -0.0000  -0.0000  -0.0000

          k = 0.1667 0.2887 0.1112 (  2323 PWs)   bands (ev):

   -12.7488 -12.7340  -2.9817  -2.9794  -1.6274  -1.6257  -0.6066  -0.4162
    11.1262  11.1634  11.2507  12.3562

     occupation numbers 
     1.0000   1.0000   1.0000   1.0000   1.0000   1.0000   1.0000   1.0000
    -0.0000  -0.0000  -0.0000  -0.0000

          k = 0.1667 0.2887-0.1483 (  2314 PWs)   bands (ev):

   -12.7414 -12.7414  -2.9805  -2.9805  -1.6266  -1.6266  -0.5129  -0.5129
    11.1453  11.1453  11.7637  11.7637

     occupation numbers 
     1.0000   1.0000   1.0000   1.0000   1.0000   1.0000   1.0000   1.0000
    -0.0000  -0.0000  -0.0000  -0.0000

          k = 0.1667 0.3849 0.0000 (  2329 PWs)   bands (ev):

   -11.6562 -11.6213  -4.7073  -4.6947  -2.6830  -2.6747   0.5176   0.9682
     9.1395   9.2830  11.9931  14.9302

     occupation numbers 
     1.0000   1.0000   1.0000   1.0000   1.0000   1.0000   1.0000   1.0000
    -0.0000  -0.0000  -0.0000  -0.0000

          k = 0.1667 0.3849 0.0371 (  2335 PWs)   bands (ev):

   -11.6548 -11.6226  -4.7068  -4.6952  -2.6827  -2.6751   0.5336   0.9497
     9.1446   9.2773  12.0713  14.5750

     occupation numbers 
     1.0000   1.0000   1.0000   1.0000   1.0000   1.0000   1.0000   1.0000
    -0.0000  -0.0000  -0.0000  -0.0000

          k = 0.1667 0.3849 0.0741 (  2332 PWs)   bands (ev):

   -11.6511 -11.6264  -4.7055  -4.6966  -2.6818  -2.6760   0.5796   0.8978
     9.1594   9.2611  12.2996  14.1618

     occupation numbers 
     1.0000   1.0000   1.0000   1.0000   1.0000   1.0000   1.0000   1.0000
    -0.0000  -0.0000  -0.0000  -0.0000

          k = 0.1667 0.3849 0.1112 (  2329 PWs)   bands (ev):

   -11.6455 -11.6321  -4.7034  -4.6986  -2.6804  -2.6773   0.6498   0.8218
     9.1819   9.2371  12.6602  13.6457

     occupation numbers 
     1.0000   1.0000   1.0000   1.0000   1.0000   1.0000   1.0000   1.0000
    -0.0000  -0.0000  -0.0000  -0.0000

          k = 0.1667 0.3849-0.1483 (  2334 PWs)   bands (ev):

   -11.6388 -11.6388  -4.7010  -4.7010  -2.6789  -2.6789   0.7346   0.7346
     9.2092   9.2092  13.1234  13.1235

     occupation numbers 
     1.0000   1.0000   1.0000   1.0000   1.0000   1.0000   1.0000   1.0000
    -0.0000  -0.0000  -0.0000  -0.0000

          k = 0.1667 0.4811 0.0000 (  2330 PWs)   bands (ev):

   -10.2847 -10.2547  -6.6116  -6.5928  -3.2590  -3.2485   1.9799   2.3385
     7.2163   7.4103  13.8400  14.7151

     occupation numbers 
     1.0000   1.0000   1.0000   1.0000   1.0000   1.0000   1.0000   1.0000
    -0.0000  -0.0000  -0.0000  -0.0000

          k = 0.1667 0.4811 0.0371 (  2336 PWs)   bands (ev):

   -10.2836 -10.2558  -6.6109  -6.5935  -3.2586  -3.2489   1.9929   2.3242
     7.2229   7.4021  13.9032  14.7173

     occupation numbers 
     1.0000   1.0000   1.0000   1.0000   1.0000   1.0000   1.0000   1.0000
    -0.0000  -0.0000  -0.0000  -0.0000

          k = 0.1667 0.4811 0.0741 (  2335 PWs)   bands (ev):

   -10.2803 -10.2591  -6.6089  -6.5956  -3.2575  -3.2501   2.0302   2.2837
     7.2419   7.3792  14.0841  14.7220

     occupation numbers 
     1.0000   1.0000   1.0000   1.0000   1.0000   1.0000   1.0000   1.0000
    -0.0000  -0.0000  -0.0000  -0.0000

          k = 0.1667 0.4811 0.1112 (  2335 PWs)   bands (ev):

   -10.2755 -10.2640  -6.6059  -6.5986  -3.2558  -3.2518   2.0868   2.2239
     7.2714   7.3458  14.3541  14.7162

     occupation numbers 
     1.0000   1.0000   1.0000   1.0000   1.0000   1.0000   1.0000   1.0000
    -0.0000  -0.0000  -0.0000  -0.0000

          k = 0.1667 0.4811-0.1483 (  2330 PWs)   bands (ev):

   -10.2697 -10.2697  -6.6022  -6.6022  -3.2538  -3.2538   2.1547   2.1547
     7.3078   7.3078  14.6243  14.6243

     occupation numbers 
     1.0000   1.0000   1.0000   1.0000   1.0000   1.0000   1.0000   1.0000
    -0.0000  -0.0000  -0.0000  -0.0000

          k = 0.1667 0.5774 0.0000 (  2338 PWs)   bands (ev):

    -9.0522  -9.0380  -8.0317  -8.0211  -3.4438  -3.4328   2.9550   3.1242
     6.1935   6.3242  14.6162  14.7552

     occupation numbers 
     1.0000   1.0000   1.0000   1.0000   1.0000   1.0000   1.0000   1.0000
    -0.0000  -0.0000  -0.0000  -0.0000

          k = 0.1667 0.5774 0.0371 (  2334 PWs)   bands (ev):

    -9.0516  -9.0385  -8.0313  -8.0216  -3.4434  -3.4333   2.9619   3.1183
     6.1965   6.3174  14.6208  14.7490

     occupation numbers 
     1.0000   1.0000   1.0000   1.0000   1.0000   1.0000   1.0000   1.0000
    -0.0000  -0.0000  -0.0000  -0.0000

          k = 0.1667 0.5774 0.0741 (  2328 PWs)   bands (ev):

    -9.0500  -9.0400  -8.0302  -8.0228  -3.4422  -3.4344   2.9814   3.1013
     6.2058   6.2987  14.6342  14.7318

     occupation numbers 
     1.0000   1.0000   1.0000   1.0000   1.0000   1.0000   1.0000   1.0000
    -0.0000  -0.0000  -0.0000  -0.0000

          k = 0.1667 0.5774 0.1112 (  2322 PWs)   bands (ev):

    -9.0477  -9.0423  -8.0286  -8.0245  -3.4404  -3.4362   3.0101   3.0751
     6.2224   6.2727  14.6546  14.7072

     occupation numbers 
     1.0000   1.0000   1.0000   1.0000   1.0000   1.0000   1.0000   1.0000
    -0.0000  -0.0000  -0.0000  -0.0000

          k = 0.1667 0.5774-0.1483 (  2330 PWs)   bands (ev):

    -9.0450  -9.0450  -8.0266  -8.0266  -3.4383  -3.4383   3.0431   3.0431
     6.2456   6.2456  14.6800  14.6800

     occupation numbers 
     1.0000   1.0000   1.0000   1.0000   1.0000   1.0000   1.0000   1.0000
    -0.0000  -0.0000  -0.0000  -0.0000

          k = 0.2500 0.4330 0.0000 (  2324 PWs)   bands (ev):

   -10.4318 -10.4011  -5.7395  -5.7304  -4.1566  -4.1496   1.8832   2.2706
     7.5359   7.6723  13.6404  15.3836

     occupation numbers 
     1.0000   1.0000   1.0000   1.0000   1.0000   1.0000   1.0000   1.0000
    -0.0000  -0.0000  -0.0000  -0.0000

          k = 0.2500 0.4330 0.0371 (  2325 PWs)   bands (ev):

   -10.4307 -10.4023  -5.7392  -5.7307  -4.1563  -4.1498   1.8971   2.2549
     7.5411   7.6671  13.6996  15.3012

     occupation numbers 
     1.0000   1.0000   1.0000   1.0000   1.0000   1.0000   1.0000   1.0000
    -0.0000  -0.0000  -0.0000  -0.0000

          k = 0.2500 0.4330 0.0741 (  2317 PWs)   bands (ev):

   -10.4274 -10.4056  -5.7382  -5.7317  -4.1556  -4.1506   1.9371   2.2107
     7.5558   7.6522  13.8700  15.0822

     occupation numbers 
     1.0000   1.0000   1.0000   1.0000   1.0000   1.0000   1.0000   1.0000
    -0.0000  -0.0000  -0.0000  -0.0000

          k = 0.2500 0.4330 0.1112 (  2318 PWs)   bands (ev):

   -10.4224 -10.4106  -5.7367  -5.7332  -4.1545  -4.1518   1.9978   2.1458
     7.5778   7.6299  14.1305  14.7806

     occupation numbers 
     1.0000   1.0000   1.0000   1.0000   1.0000   1.0000   1.0000   1.0000
    -0.0000  -0.0000  -0.0000  -0.0000

          k = 0.2500 0.4330-0.1483 (  2308 PWs)   bands (ev):

   -10.4165 -10.4165  -5.7349  -5.7349  -4.1531  -4.1531   2.0710   2.0710
     7.6038   7.6038  14.4478  14.4478

     occupation numbers 
     1.0000   1.0000   1.0000   1.0000   1.0000   1.0000   1.0000   1.0000
    -0.0000  -0.0000  -0.0000  -0.0000

          k = 0.2500 0.5292 0.0000 (  2315 PWs)   bands (ev):

    -9.0143  -8.9900  -7.1562  -7.1405  -4.8641  -4.8524   3.3189   3.5831
     6.0297   6.1600  15.5754  15.6356

     occupation numbers 
     1.0000   1.0000   1.0000   1.0000   1.0000   1.0000   1.0000   1.0001
    -0.0001  -0.0000  -0.0000  -0.0000

          k = 0.2500 0.5292 0.0371 (  2319 PWs)   bands (ev):

    -9.0134  -8.9910  -7.1556  -7.1411  -4.8637  -4.8529   3.3289   3.5730
     6.0340   6.1545  15.5075  15.5969

     occupation numbers 
     1.0000   1.0000   1.0000   1.0000   1.0000   1.0000   1.0000   1.0001
    -0.0001  -0.0000  -0.0000  -0.0000

          k = 0.2500 0.5292 0.0741 (  2321 PWs)   bands (ev):

    -9.0108  -8.9936  -7.1539  -7.1428  -4.8624  -4.8541   3.3572   3.5441
     6.0468   6.1390  15.4046  15.4969

     occupation numbers 
     1.0000   1.0000   1.0000   1.0000   1.0000   1.0000   1.0000   1.0001
    -0.0001  -0.0000  -0.0000  -0.0000

          k = 0.2500 0.5292 0.1112 (  2318 PWs)   bands (ev):

    -9.0068  -8.9975  -7.1514  -7.1454  -4.8605  -4.8561   3.3999   3.5011
     6.0665   6.1165  15.3421  15.3976

     occupation numbers 
     1.0000   1.0000   1.0000   1.0000   1.0000   1.0000   1.0000   1.0000
    -0.0001  -0.0000  -0.0000  -0.0000

          k = 0.2500 0.5292-0.1483 (  2328 PWs)   bands (ev):

    -9.0022  -9.0022  -7.1484  -7.1484  -4.8583  -4.8583   3.4504   3.4504
     6.0909   6.0909  15.3401  15.3401

     occupation numbers 
     1.0000   1.0000   1.0000   1.0000   1.0000   1.0000   1.0000   1.0000
    -0.0000  -0.0000  -0.0000  -0.0000

          k = 0.3333 0.5774 0.0000 (  2316 PWs)   bands (ev):

    -7.8045  -7.7922  -7.7921  -7.7803  -5.7447  -5.7446   4.6443   4.7985
     4.7986   4.9610  15.4971  15.4977

     occupation numbers 
     1.0000   1.0000   1.0000   1.0000   1.0000   1.0000   0.7981   0.5030
     0.5028   0.1932  -0.0000  -0.0000

          k = 0.3333 0.5774 0.0371 (  2319 PWs)   bands (ev):

    -7.8036  -7.7922  -7.7920  -7.7813  -5.7447  -5.7447   4.6558   4.7988
     4.7989   4.9483  15.4423  15.4429

     occupation numbers 
     1.0000   1.0000   1.0000   1.0000   1.0000   1.0000   0.7792   0.5024
     0.5023   0.2138  -0.0000  -0.0000

          k = 0.3333 0.5774 0.0741 (  2331 PWs)   bands (ev):

    -7.8010  -7.7922  -7.7920  -7.7839  -5.7447  -5.7447   4.6887   4.7994
     4.7995   4.9125  15.3288  15.3292

     occupation numbers 
     1.0000   1.0000   1.0000   1.0000   1.0000   1.0000   0.7214   0.5011
     0.5010   0.2762  -0.0000  -0.0000

          k = 0.3333 0.5774 0.1112 (  2322 PWs)   bands (ev):

    -7.7972  -7.7922  -7.7920  -7.7877  -5.7447  -5.7447   4.7386   4.8001
     4.8001   4.8597  15.2333  15.2335

     occupation numbers 
     1.0000   1.0000   1.0000   1.0000   1.0000   1.0000   0.6255   0.4998
     0.4997   0.3777  -0.0000  -0.0000

          k = 0.3333 0.5774-0.1483 (  2322 PWs)   bands (ev):

    -7.7930  -7.7930  -7.7915  -7.7915  -5.7447  -5.7447   4.7982   4.7982
     4.8008   4.8008  15.1976  15.1976

     occupation numbers 
     1.0000   1.0000   1.0000   1.0000   1.0000   1.0000   0.5037   0.5037
     0.4983   0.4983  -0.0000  -0.0000

          k =-0.0833-0.0481 0.0000 (  2326 PWs)   bands (ev):

   -14.5373 -14.4926  -2.8653  -2.3061   1.0820   1.0851   1.3923   1.3947
     8.1829  11.6844  13.1462  13.1710

     occupation numbers 
     1.0000   1.0000   1.0000   1.0000   1.0000   1.0000   1.0000   1.0000
    -0.0000  -0.0000  -0.0000  -0.0000

          k =-0.0833-0.0481-0.0371 (  2327 PWs)   bands (ev):

   -14.5357 -14.4944  -2.8458  -2.3295   1.0821   1.0850   1.3924   1.3946
     8.2746  11.4384  13.1505  13.1709

     occupation numbers 
     1.0000   1.0000   1.0000   1.0000   1.0000   1.0000   1.0000   1.0000
    -0.0000  -0.0000  -0.0000  -0.0000

          k =-0.0833-0.0481-0.0741 (  2329 PWs)   bands (ev):

   -14.5309 -14.4992  -2.7896  -2.3949   1.0825   1.0847   1.3926   1.3944
     8.5436  10.8621  13.1569  13.1695

     occupation numbers 
     1.0000   1.0000   1.0000   1.0000   1.0000   1.0000   1.0000   1.0000
    -0.0000  -0.0000  -0.0000  -0.0000

          k =-0.0833-0.0481-0.1112 (  2325 PWs)   bands (ev):

   -14.5236 -14.5065  -2.7036  -2.4903   1.0830   1.0842   1.3931   1.3940
     8.9722  10.1846  13.1615  13.1675

     occupation numbers 
     1.0000   1.0000   1.0000   1.0000   1.0000   1.0000   1.0000   1.0000
    -0.0000  -0.0000  -0.0000  -0.0000

          k =-0.0833-0.0481 0.1483 (  2320 PWs)   bands (ev):

   -14.5151 -14.5151  -2.5988  -2.5988   1.0836   1.0836   1.3935   1.3935
     9.5327   9.5327  13.1649  13.1649

     occupation numbers 
     1.0000   1.0000   1.0000   1.0000   1.0000   1.0000   1.0000   1.0000
    -0.0000  -0.0000  -0.0000  -0.0000

          k =-0.1667-0.0962 0.0000 (  2332 PWs)   bands (ev):

   -14.0486 -14.0056  -2.2779  -1.7337  -0.5522  -0.5453   0.6029   0.6066
     8.8207  12.2518  13.0719  13.1263

     occupation numbers 
     1.0000   1.0000   1.0000   1.0000   1.0000   1.0000   1.0000   1.0000
    -0.0000  -0.0000  -0.0000  -0.0000

          k =-0.1667-0.0962-0.0371 (  2333 PWs)   bands (ev):

   -14.0470 -14.0073  -2.2589  -1.7565  -0.5519  -0.5456   0.6031   0.6065
     8.9108  12.0100  13.0833  13.1255

     occupation numbers 
     1.0000   1.0000   1.0000   1.0000   1.0000   1.0000   1.0000   1.0000
    -0.0000  -0.0000  -0.0000  -0.0000

          k =-0.1667-0.0962-0.0741 (  2327 PWs)   bands (ev):

   -14.0424 -14.0120  -2.2041  -1.8201  -0.5512  -0.5463   0.6035   0.6061
     9.1751  11.4473  13.0975  13.1234

     occupation numbers 
     1.0000   1.0000   1.0000   1.0000   1.0000   1.0000   1.0000   1.0000
    -0.0000  -0.0000  -0.0000  -0.0000

          k =-0.1667-0.0962-0.1112 (  2331 PWs)   bands (ev):

   -14.0355 -14.0190  -2.1203  -1.9128  -0.5501  -0.5474   0.6041   0.6055
     9.5961  10.7850  13.1069  13.1192

     occupation numbers 
     1.0000   1.0000   1.0000   1.0000   1.0000   1.0000   1.0000   1.0000
    -0.0000  -0.0000  -0.0000  -0.0000

          k =-0.1667-0.0962 0.1483 (  2330 PWs)   bands (ev):

   -14.0273 -14.0273  -2.0183  -2.0183  -0.5487  -0.5487   0.6048   0.6048
    10.1462  10.1462  13.1137  13.1137

     occupation numbers 
     1.0000   1.0000   1.0000   1.0000   1.0000   1.0000   1.0000   1.0000
    -0.0000  -0.0000  -0.0000  -0.0000

          k =-0.2500-0.1443 0.0000 (  2318 PWs)   bands (ev):

   -13.2405 -13.2003  -2.6455  -2.6340  -1.3186  -0.8024  -0.2737  -0.2693
     9.8811  11.9186  12.0380  12.7855

     occupation numbers 
     1.0000   1.0000   1.0000   1.0000   1.0000   1.0000   1.0000   1.0000
    -0.0000  -0.0000  -0.0000  -0.0000

          k =-0.2500-0.1443-0.0371 (  2322 PWs)   bands (ev):

   -13.2390 -13.2018  -2.6450  -2.6344  -1.3005  -0.8238  -0.2735  -0.2694
     9.9670  11.9184  12.0276  12.7666

     occupation numbers 
     1.0000   1.0000   1.0000   1.0000   1.0000   1.0000   1.0000   1.0000
    -0.0000  -0.0000  -0.0000  -0.0000

          k =-0.2500-0.1443-0.0741 (  2335 PWs)   bands (ev):

   -13.2347 -13.2062  -2.6438  -2.6357  -1.2483  -0.8840  -0.2731  -0.2699
    10.2181  11.8842  12.0070  12.5402

     occupation numbers 
[...]
     9.1608   9.2624  12.2996  14.1614

     occupation numbers 
     1.0000   1.0000   1.0000   1.0000   1.0000   1.0000   1.0000   1.0000
    -0.0000  -0.0000  -0.0000  -0.0000

          k =-0.2500-0.3368-0.1112 (  2329 PWs)   bands (ev):

   -11.6454 -11.6321  -4.7026  -4.6978  -2.6814  -2.6782   0.6496   0.8216
     9.1824   9.2375  12.6602  13.6458

     occupation numbers 
     1.0000   1.0000   1.0000   1.0000   1.0000   1.0000   1.0000   1.0000
    -0.0000  -0.0000  -0.0000  -0.0000

          k = 0.4167-0.0481-0.1112 (  2329 PWs)   bands (ev):

   -11.6454 -11.6320  -4.7017  -4.6969  -2.6824  -2.6792   0.6493   0.8214
     9.1833   9.2384  12.6601  13.6456

     occupation numbers 
     1.0000   1.0000   1.0000   1.0000   1.0000   1.0000   1.0000   1.0000
    -0.0000  -0.0000  -0.0000  -0.0000

          k =-0.2500-0.3368 0.1483 (  2334 PWs)   bands (ev):

   -11.6388 -11.6388  -4.7002  -4.7002  -2.6798  -2.6798   0.7344   0.7344
     9.2096   9.2096  13.1234  13.1234

     occupation numbers 
     1.0000   1.0000   1.0000   1.0000   1.0000   1.0000   1.0000   1.0000
    -0.0000  -0.0000  -0.0000  -0.0000

          k = 0.4167-0.0481 0.1483 (  2334 PWs)   bands (ev):

   -11.6387 -11.6387  -4.6993  -4.6993  -2.6808  -2.6808   0.7341   0.7341
     9.2106   9.2106  13.1232  13.1232

     occupation numbers 
     1.0000   1.0000   1.0000   1.0000   1.0000   1.0000   1.0000   1.0000
    -0.0000  -0.0000  -0.0000  -0.0000

          k =-0.3333-0.3849 0.0000 (  2330 PWs)   bands (ev):

   -10.2848 -10.2547  -6.6106  -6.5918  -3.2601  -3.2497   1.9793   2.3378
     7.2176   7.4114  13.8401  14.7144

     occupation numbers 
     1.0000   1.0000   1.0000   1.0000   1.0000   1.0000   1.0000   1.0000
    -0.0000  -0.0000  -0.0000  -0.0000

          k = 0.5000-0.0962 0.0000 (  2330 PWs)   bands (ev):

   -10.2847 -10.2547  -6.6104  -6.5916  -3.2605  -3.2500   1.9790   2.3375
     7.2182   7.4120  13.8400  14.7140

     occupation numbers 
     1.0000   1.0000   1.0000   1.0000   1.0000   1.0000   1.0000   1.0000
    -0.0000  -0.0000  -0.0000  -0.0000

          k =-0.3333-0.3849-0.0371 (  2336 PWs)   bands (ev):

   -10.2836 -10.2559  -6.6099  -6.5926  -3.2598  -3.2501   1.9923   2.3235
     7.2241   7.4032  13.9033  14.7166

     occupation numbers 
     1.0000   1.0000   1.0000   1.0000   1.0000   1.0000   1.0000   1.0000
    -0.0000  -0.0000  -0.0000  -0.0000

          k = 0.5000-0.0962-0.0371 (  2336 PWs)   bands (ev):

   -10.2836 -10.2558  -6.6097  -6.5923  -3.2601  -3.2504   1.9920   2.3232
     7.2247   7.4039  13.9031  14.7162

     occupation numbers 
     1.0000   1.0000   1.0000   1.0000   1.0000   1.0000   1.0000   1.0000
    -0.0000  -0.0000  -0.0000  -0.0000

          k =-0.3333-0.3849-0.0741 (  2335 PWs)   bands (ev):

   -10.2804 -10.2592  -6.6079  -6.5946  -3.2586  -3.2512   2.0296   2.2830
     7.2431   7.3803  14.0843  14.7212

     occupation numbers 
     1.0000   1.0000   1.0000   1.0000   1.0000   1.0000   1.0000   1.0000
    -0.0000  -0.0000  -0.0000  -0.0000

          k = 0.5000-0.0962-0.0741 (  2335 PWs)   bands (ev):

   -10.2804 -10.2591  -6.6076  -6.5944  -3.2589  -3.2515   2.0293   2.2827
     7.2437   7.3810  14.0840  14.7208

     occupation numbers 
     1.0000   1.0000   1.0000   1.0000   1.0000   1.0000   1.0000   1.0000
    -0.0000  -0.0000  -0.0000  -0.0000

          k =-0.3333-0.3849-0.1112 (  2335 PWs)   bands (ev):

   -10.2755 -10.2640  -6.6049  -6.5977  -3.2569  -3.2529   2.0862   2.2233
     7.2726   7.3470  14.3543  14.7157

     occupation numbers 
     1.0000   1.0000   1.0000   1.0000   1.0000   1.0000   1.0000   1.0000
    -0.0000  -0.0000  -0.0000  -0.0000

          k = 0.5000-0.0962-0.1112 (  2335 PWs)   bands (ev):

   -10.2755 -10.2640  -6.6046  -6.5974  -3.2573  -3.2532   2.0859   2.2230
     7.2733   7.3476  14.3538  14.7151

     occupation numbers 
     1.0000   1.0000   1.0000   1.0000   1.0000   1.0000   1.0000   1.0000
    -0.0000  -0.0000  -0.0000  -0.0000

          k =-0.3333-0.3849 0.1483 (  2330 PWs)   bands (ev):

   -10.2698 -10.2698  -6.6013  -6.6013  -3.2549  -3.2549   2.1541   2.1541
     7.3090   7.3090  14.6241  14.6246

     occupation numbers 
     1.0000   1.0000   1.0000   1.0000   1.0000   1.0000   1.0000   1.0000
    -0.0000  -0.0000  -0.0000  -0.0000

          k = 0.5000-0.0962 0.1483 (  2330 PWs)   bands (ev):

   -10.2698 -10.2698  -6.6010  -6.6010  -3.2553  -3.2553   2.1538   2.1538
     7.3096   7.3096  14.6233  14.6233

     occupation numbers 
     1.0000   1.0000   1.0000   1.0000   1.0000   1.0000   1.0000   1.0000
    -0.0000  -0.0000  -0.0000  -0.0000

          k =-0.4167-0.4330 0.0000 (  2338 PWs)   bands (ev):

    -9.0531  -9.0389  -8.0298  -8.0192  -3.4451  -3.4341   2.9535   3.1227
     6.1957   6.3266  14.6154  14.7545

     occupation numbers 
     1.0000   1.0000   1.0000   1.0000   1.0000   1.0000   1.0000   1.0000
    -0.0000  -0.0000  -0.0000  -0.0000

          k =-0.4167-0.4330-0.0371 (  2334 PWs)   bands (ev):

    -9.0525  -9.0394  -8.0294  -8.0197  -3.4446  -3.4345   2.9604   3.1168
     6.1987   6.3197  14.6201  14.7483

     occupation numbers 
     1.0000   1.0000   1.0000   1.0000   1.0000   1.0000   1.0000   1.0000
    -0.0000  -0.0000  -0.0000  -0.0000

          k =-0.4167-0.4330-0.0741 (  2328 PWs)   bands (ev):

    -9.0509  -9.0409  -8.0283  -8.0209  -3.4434  -3.4357   2.9799   3.0998
     6.2080   6.3010  14.6334  14.7311

     occupation numbers 
     1.0000   1.0000   1.0000   1.0000   1.0000   1.0000   1.0000   1.0000
    -0.0000  -0.0000  -0.0000  -0.0000

          k =-0.4167-0.4330-0.1112 (  2322 PWs)   bands (ev):

    -9.0486  -9.0432  -8.0267  -8.0226  -3.4417  -3.4375   3.0086   3.0736
     6.2246   6.2750  14.6539  14.7064

     occupation numbers 
     1.0000   1.0000   1.0000   1.0000   1.0000   1.0000   1.0000   1.0000
    -0.0000  -0.0000  -0.0000  -0.0000

          k =-0.4167-0.4330 0.1483 (  2330 PWs)   bands (ev):

    -9.0459  -9.0459  -8.0247  -8.0247  -3.4396  -3.4396   3.0416   3.0416
     6.2479   6.2479  14.6792  14.6792

     occupation numbers 
     1.0000   1.0000   1.0000   1.0000   1.0000   1.0000   1.0000   1.0000
    -0.0000  -0.0000  -0.0000  -0.0000

          k = 0.5000-0.0000 0.0000 (  2324 PWs)   bands (ev):

   -10.4318 -10.4011  -5.7381  -5.7289  -4.1582  -4.1512   1.8827   2.2699
     7.5372   7.6736  13.6404  15.3827

     occupation numbers 
     1.0000   1.0000   1.0000   1.0000   1.0000   1.0000   1.0000   1.0000
    -0.0000  -0.0000  -0.0000  -0.0000

          k = 0.5000-0.0000-0.0371 (  2325 PWs)   bands (ev):

   -10.4306 -10.4023  -5.7377  -5.7293  -4.1579  -4.1515   1.8966   2.2543
     7.5424   7.6683  13.6996  15.3003

     occupation numbers 
     1.0000   1.0000   1.0000   1.0000   1.0000   1.0000   1.0000   1.0000
    -0.0000  -0.0000  -0.0000  -0.0000

          k = 0.5000-0.0000-0.0741 (  2317 PWs)   bands (ev):

   -10.4273 -10.4056  -5.7367  -5.7303  -4.1572  -4.1522   1.9365   2.2101
     7.5571   7.6534  13.8700  15.0814

     occupation numbers 
     1.0000   1.0000   1.0000   1.0000   1.0000   1.0000   1.0000   1.0000
    -0.0000  -0.0000  -0.0000  -0.0000

          k = 0.5000-0.0000-0.1112 (  2318 PWs)   bands (ev):

   -10.4224 -10.4106  -5.7352  -5.7317  -4.1561  -4.1534   1.9972   2.1452
     7.5791   7.6312  14.1303  14.7799

     occupation numbers 
     1.0000   1.0000   1.0000   1.0000   1.0000   1.0000   1.0000   1.0000
    -0.0000  -0.0000  -0.0000  -0.0000

          k = 0.5000-0.0000 0.1483 (  2308 PWs)   bands (ev):

   -10.4165 -10.4165  -5.7335  -5.7335  -4.1547  -4.1547   2.0704   2.0704
     7.6051   7.6051  14.4475  14.4475

     occupation numbers 
     1.0000   1.0000   1.0000   1.0000   1.0000   1.0000   1.0000   1.0000
    -0.0000  -0.0000  -0.0000  -0.0000

          k =-0.3333-0.4811 0.0000 (  2315 PWs)   bands (ev):

    -9.0145  -8.9903  -7.1552  -7.1395  -4.8650  -4.8533   3.3183   3.5823
     6.0308   6.1609  15.5755  15.6353

     occupation numbers 
     1.0000   1.0000   1.0000   1.0000   1.0000   1.0000   1.0000   1.0001
    -0.0001  -0.0000  -0.0000  -0.0000

          k = 0.5833-0.0481 0.0000 (  2315 PWs)   bands (ev):

    -9.0146  -8.9903  -7.1547  -7.1390  -4.8654  -4.8537   3.3177   3.5818
     6.0316   6.1618  15.5754  15.6345

     occupation numbers 
     1.0000   1.0000   1.0000   1.0000   1.0000   1.0000   1.0000   1.0001
    -0.0001  -0.0000  -0.0000  -0.0000

          k =-0.3333-0.4811-0.0371 (  2319 PWs)   bands (ev):

    -9.0136  -8.9912  -7.1546  -7.1401  -4.8645  -4.8537   3.3282   3.5722
     6.0352   6.1554  15.5075  15.5967

     occupation numbers 
     1.0000   1.0000   1.0000   1.0000   1.0000   1.0000   1.0000   1.0001
    -0.0001  -0.0000  -0.0000  -0.0000

          k = 0.5833-0.0481-0.0371 (  2319 PWs)   bands (ev):

    -9.0137  -8.9913  -7.1541  -7.1396  -4.8650  -4.8542   3.3276   3.5717
     6.0360   6.1563  15.5074  15.5959

     occupation numbers 
     1.0000   1.0000   1.0000   1.0000   1.0000   1.0000   1.0000   1.0001
    -0.0001  -0.0000  -0.0000  -0.0000

          k =-0.3333-0.4811-0.0741 (  2321 PWs)   bands (ev):

    -9.0110  -8.9938  -7.1529  -7.1418  -4.8633  -4.8550   3.3566   3.5434
     6.0479   6.1399  15.4045  15.4967

     occupation numbers 
     1.0000   1.0000   1.0000   1.0000   1.0000   1.0000   1.0000   1.0001
    -0.0001  -0.0000  -0.0000  -0.0000

          k = 0.5833-0.0481-0.0741 (  2321 PWs)   bands (ev):

    -9.0111  -8.9939  -7.1524  -7.1413  -4.8638  -4.8555   3.3560   3.5428
     6.0487   6.1408  15.4043  15.4961

     occupation numbers 
     1.0000   1.0000   1.0000   1.0000   1.0000   1.0000   1.0000   1.0001
    -0.0001  -0.0000  -0.0000  -0.0000

          k =-0.3333-0.4811-0.1112 (  2318 PWs)   bands (ev):

    -9.0071  -8.9978  -7.1503  -7.1443  -4.8614  -4.8569   3.3992   3.5003
     6.0676   6.1175  15.3419  15.3974

     occupation numbers 
     1.0000   1.0000   1.0000   1.0000   1.0000   1.0000   1.0000   1.0000
    -0.0001  -0.0000  -0.0000  -0.0000

          k = 0.5833-0.0481-0.1112 (  2318 PWs)   bands (ev):

    -9.0071  -8.9979  -7.1498  -7.1438  -4.8619  -4.8574   3.3986   3.4998
     6.0684   6.1183  15.3418  15.3969

     occupation numbers 
     1.0000   1.0000   1.0000   1.0000   1.0000   1.0000   1.0000   1.0000
    -0.0001  -0.0000  -0.0000  -0.0000

          k =-0.3333-0.4811 0.1483 (  2328 PWs)   bands (ev):

    -9.0024  -9.0024  -7.1473  -7.1473  -4.8592  -4.8592   3.4496   3.4496
     6.0920   6.0920  15.3399  15.3399

     occupation numbers 
     1.0000   1.0000   1.0000   1.0000   1.0000   1.0000   1.0000   1.0000
    -0.0000  -0.0000  -0.0000  -0.0000

          k = 0.5833-0.0481 0.1483 (  2328 PWs)   bands (ev):

    -9.0025  -9.0025  -7.1468  -7.1468  -4.8596  -4.8596   3.4491   3.4491
     6.0928   6.0928  15.3395  15.3395

     occupation numbers 
     1.0000   1.0000   1.0000   1.0000   1.0000   1.0000   1.0000   1.0000
    -0.0000  -0.0000  -0.0000  -0.0000

     the Fermi energy is     4.8000 ev

!    total energy              =     -49.71482623 Ry
     estimated scf accuracy    <          2.0E-10 Ry
     smearing contrib. (-TS)   =      -0.00041931 Ry
     internal energy E=F+TS    =     -49.71440692 Ry

     The total energy is F=E-TS. E is the sum of the following terms:
     one-electron contribution =     -29.91279315 Ry
     hartree contribution      =      21.74000271 Ry
     xc contribution           =     -18.53831395 Ry
     ewald contribution        =     -23.00330253 Ry

     convergence has been achieved in   7 iterations

     Forces acting on atoms (cartesian axes, Ry/au):

     atom    1 type  1   force =    -0.00000000   -0.00027589    0.00000000
     atom    2 type  1   force =     0.00000000    0.00027589    0.00000000
     atom    3 type  1   force =    -0.00000000    0.00027612    0.00000000
     atom    4 type  1   force =     0.00000000   -0.00027612    0.00000000
     The non-local contrib.  to forces
     atom    1 type  1   force =    -0.00000000   -0.00025658    0.00000000
     atom    2 type  1   force =     0.00000000    0.00025658    0.00000000
     atom    3 type  1   force =     0.00000000    0.00025664    0.00000000
     atom    4 type  1   force =    -0.00000000   -0.00025664    0.00000000
     The ionic contribution  to forces
     atom    1 type  1   force =    -0.00000000   -0.00098176   -0.00000000
     atom    2 type  1   force =    -0.00000000    0.00098176    0.00000000
     atom    3 type  1   force =    -0.00000000    0.00098202   -0.00000000
     atom    4 type  1   force =     0.00000000   -0.00098202    0.00000000
     The local contribution  to forces
     atom    1 type  1   force =     0.00000000    0.00095431    0.00000000
     atom    2 type  1   force =    -0.00000000   -0.00095431    0.00000000
     atom    3 type  1   force =    -0.00000000   -0.00095456    0.00000000
     atom    4 type  1   force =    -0.00000000    0.00095456    0.00000000
     The core correction contribution to forces
     atom    1 type  1   force =     0.00000000    0.00000823   -0.00000000
     atom    2 type  1   force =    -0.00000000   -0.00000823   -0.00000000
     atom    3 type  1   force =    -0.00000000   -0.00000803   -0.00000000
     atom    4 type  1   force =     0.00000000    0.00000803   -0.00000000
     The Hubbard contrib.    to forces
     atom    1 type  1   force =     0.00000000    0.00000000    0.00000000
     atom    2 type  1   force =     0.00000000    0.00000000    0.00000000
     atom    3 type  1   force =     0.00000000    0.00000000    0.00000000
     atom    4 type  1   force =     0.00000000    0.00000000    0.00000000
     The SCF correction term to forces
     atom    1 type  1   force =    -0.00000000   -0.00000009    0.00000000
     atom    2 type  1   force =     0.00000000    0.00000009    0.00000000
     atom    3 type  1   force =    -0.00000000    0.00000005    0.00000000
     atom    4 type  1   force =     0.00000000   -0.00000005    0.00000000

     Total force =     0.000552     Total SCF correction =     0.000000


     Computing stress (Cartesian axis) and pressure

          total   stress  (Ry/bohr**3)                   (kbar)     P=      -13.26
  -0.00013278  -0.00000000   0.00000000          -19.53       -0.00        0.00
  -0.00000000  -0.00013168   0.00000000           -0.00      -19.37        0.00
   0.00000000   0.00000000  -0.00000590            0.00        0.00       -0.87

     kinetic stress (kbar)   9262.50     -0.00      0.00
                               -0.00   9261.76      0.00
                                0.00      0.00  10523.64

     local   stress (kbar) -26774.53     -0.00     -0.00
                               -0.00 -26778.96      0.00
                               -0.00      0.00  27091.49

     nonloc. stress (kbar)   1804.95     -0.00      0.00
                               -0.00   1805.10      0.00
                                0.00      0.00   1659.05

     hartree stress (kbar)   9939.55     -0.00      0.00
                               -0.00   9940.18     -0.00
                                0.00     -0.00  -9112.08

     exc-cor stress (kbar)   -165.01      0.00     -0.00
                                0.00   -164.98     -0.00
                               -0.00     -0.00   -269.71

     corecor stress (kbar)  -2235.84      0.00     -0.00
                                0.00  -2235.86     -0.00
                               -0.00     -0.00  -2197.67

     ewald   stress (kbar)   8148.85     -0.00     -0.00
                               -0.00   8153.39      0.00
                               -0.00      0.00 -27695.59

     hubbard stress (kbar)      0.00      0.00      0.00
                                0.00      0.00      0.00
                                0.00      0.00      0.00

     DFT-D   stress (kbar)      0.00      0.00      0.00
                                0.00      0.00      0.00
                                0.00      0.00      0.00

     XDM     stress (kbar)      0.00      0.00      0.00
                                0.00      0.00      0.00
                                0.00      0.00      0.00

     dft-nl  stress (kbar)      0.00      0.00      0.00
                                0.00      0.00      0.00
                                0.00      0.00      0.00

     TS-vdW  stress (kbar)      0.00      0.00      0.00
                                0.00      0.00      0.00
                                0.00      0.00      0.00



     Writing output data file ./tmp/C.save/

     init_run     :     25.38s CPU     26.44s WALL (       1 calls)
     electrons    :    457.23s CPU    487.73s WALL (       1 calls)
     forces       :      3.08s CPU      3.16s WALL (       1 calls)
     stress       :     12.05s CPU     12.25s WALL (       1 calls)

     Called by init_run:
     wfcinit      :     23.21s CPU     24.16s WALL (       1 calls)
     wfcinit:atom :      0.47s CPU      0.50s WALL (     215 calls)
     wfcinit:wfcr :     19.84s CPU     20.68s WALL (     215 calls)
     potinit      :      0.67s CPU      0.71s WALL (       1 calls)
     hinit0       :      1.16s CPU      1.18s WALL (       1 calls)

     Called by electrons:
     c_bands      :    387.20s CPU    414.29s WALL (       7 calls)
     sum_band     :     65.96s CPU     69.24s WALL (       7 calls)
     v_of_rho     :      3.32s CPU      3.48s WALL (       8 calls)
     v_h          :      0.14s CPU      0.14s WALL (       8 calls)
     v_xc         :      3.69s CPU      3.85s WALL (      10 calls)
     newd         :      0.88s CPU      0.94s WALL (       8 calls)
     mix_rho      :      0.22s CPU      0.22s WALL (       7 calls)

     Called by c_bands:
     init_us_2    :     10.70s CPU     11.37s WALL (    3655 calls)
     cegterg      :    372.30s CPU    398.38s WALL (    1505 calls)

     Called by sum_band:
     sum_band:wei :      0.11s CPU      0.11s WALL (       7 calls)
     sum_band:loo :     64.27s CPU     67.34s WALL (       7 calls)
     sum_band:buf :      0.37s CPU      0.39s WALL (    1505 calls)
     sum_band:ini :      4.64s CPU      4.84s WALL (    1505 calls)
     sum_band:cal :      3.03s CPU      3.17s WALL (    1505 calls)
     sum_band:bec :      0.08s CPU      0.08s WALL (    1505 calls)
     addusdens    :      0.85s CPU      1.03s WALL (       7 calls)
     addusd:skk   :      0.02s CPU      0.02s WALL (       7 calls)
     addusd:dgemm :      0.17s CPU      0.30s WALL (       7 calls)
     addusd:qvan2 :      0.39s CPU      0.43s WALL (       7 calls)

     Called by *egterg:
     cdiaghg      :      5.83s CPU      6.31s WALL (    6727 calls)
     cegterg:over :     11.78s CPU     12.85s WALL (    5222 calls)
     cegterg:upda :      7.46s CPU      8.14s WALL (    5222 calls)
     cegterg:last :     12.58s CPU     13.35s WALL (    3359 calls)
     h_psi        :    335.00s CPU    357.79s WALL (    6942 calls)
     s_psi        :     10.55s CPU     11.33s WALL (    6942 calls)
     g_psi        :      1.90s CPU      2.01s WALL (    5222 calls)

     Called by h_psi:
     h_psi:calbec :     11.36s CPU     12.31s WALL (    6942 calls)
     vloc_psi     :    310.51s CPU    331.42s WALL (    6942 calls)
     add_vuspsi   :     11.56s CPU     12.37s WALL (    6942 calls)

     General routines
     calbec       :     15.63s CPU     16.77s WALL (    9522 calls)
     fft          :      1.66s CPU      1.69s WALL (     127 calls)
     ffts         :      0.07s CPU      0.08s WALL (      15 calls)
     fftw         :    323.84s CPU    345.40s WALL (  125102 calls)
     interpolate  :      0.17s CPU      0.17s WALL (       8 calls)

     Parallel routines

     PWSCF        :   8m18.34s CPU   8m50.97s WALL


   This run was terminated on:  12: 1:38  23May2022            

=------------------------------------------------------------------------------=
   JOB DONE.
=------------------------------------------------------------------------------=
