
     Program PWSCF v.6.7MaX starts on 23May2022 at 11:35:53 

     This program is part of the open-source Quantum ESPRESSO suite
     for quantum simulation of materials; please cite
         "P. Giannozzi et al., J. Phys.:Condens. Matter 21 395502 (2009);
         "P. Giannozzi et al., J. Phys.:Condens. Matter 29 465901 (2017);
          URL http://www.quantum-espresso.org", 
     in publications or presentations arising from this work. More details at
     http://www.quantum-espresso.org/quote

     Parallel version (MPI), running on     1 processors

     MPI processes distributed on     1 nodes
     Waiting for input...
     Reading input from standard input

     Current dimensions of program PWSCF are:
     Max number of different atomic species (ntypx) = 10
     Max number of k-points (npk) =  40000
     Max angular momentum in pseudopotentials (lmaxx) =  3

     Subspace diagonalization in iterative solution of the eigenvalue problem:
     a serial algorithm will be used


     G-vector sticks info
     --------------------
     sticks:   dense  smooth     PW     G-vecs:    dense   smooth      PW
     Sum         475     241     85                28739    10167    1933



     bravais-lattice index     =            4
     lattice parameter (alat)  =       4.6676  a.u.
     unit-cell volume          =     297.0066 (a.u.)^3
     number of atoms/cell      =            4
     number of atomic types    =            1
     number of electrons       =        16.00
     number of Kohn-Sham states=           12
     kinetic-energy cutoff     =      40.0000  Ry
     charge density cutoff     =     320.0000  Ry
     scf convergence threshold =      1.0E-09
     mixing beta               =       0.7000
     number of iterations used =            8  plain     mixing
     Exchange-correlation= PBE
                           (   1   4   3   4   0   0   0)

     celldm(1)=   4.667624  celldm(2)=   1.000000  celldm(3)=   3.372470
     celldm(4)=   0.000000  celldm(5)=   0.000000  celldm(6)=   0.000000

     crystal axes: (cart. coord. in units of alat)
               a(1) = (   1.000000   0.000000   0.000000 )  
               a(2) = (  -0.500000   0.866025   0.000000 )  
               a(3) = (   0.000000   0.000000   3.372470 )  

     reciprocal axes: (cart. coord. in units 2 pi/alat)
               b(1) = (  1.000000  0.577350 -0.000000 )  
               b(2) = (  0.000000  1.154701  0.000000 )  
               b(3) = (  0.000000 -0.000000  0.296519 )  


     PseudoPot. # 1 for C  read from file:
     /home/max/Desktop/graphite_DFT/Pseudo/C.pbe-n-rrkjus_psl.1.0.0.UPF
     MD5 check sum: 1fdd950c42eb37d8afe3dd2f8d12311e
     Pseudo is Ultrasoft + core correction, Zval =  4.0
     Generated using &quot;atomic&quot; code by A. Dal Corso  v.6.3MaX
     Using radial grid of 1073 points,  4 beta functions with: 
                l(1) =   0
                l(2) =   0
                l(3) =   1
                l(4) =   1
     Q(r) pseudized with 0 coefficients 


     atomic species   valence    mass     pseudopotential
        C              4.00    12.01100     C ( 1.00)

      8 Sym. Ops., with inversion, found ( 4 have fractional translation)


                                    s                        frac. trans.

      isym =  1     identity                                     

 cryst.   s( 1) = (     1          0          0      )
                  (     0          1          0      )
                  (     0          0          1      )

 cart.    s( 1) = (  1.0000000  0.0000000  0.0000000 )
                  (  0.0000000  1.0000000  0.0000000 )
                  (  0.0000000  0.0000000  1.0000000 )


      isym =  2     180 deg rotation - cart. axis [0,0,1]        

 cryst.   s( 2) = (    -1          0          0      )    f =(  0.0000000 )
                  (     0         -1          0      )       (  0.0000000 )
                  (     0          0          1      )       ( -0.5000000 )

 cart.    s( 2) = ( -1.0000000  0.0000000  0.0000000 )    f =(  0.0000000 )
                  (  0.0000000 -1.0000000  0.0000000 )       (  0.0000000 )
                  (  0.0000000  0.0000000  1.0000000 )       ( -1.6862348 )


      isym =  3     180 deg rotation - cart. axis [0,1,0]        

 cryst.   s( 3) = (    -1          0          0      )    f =(  0.0000000 )
                  (     1          1          0      )       (  0.0000000 )
                  (     0          0         -1      )       (  0.5000000 )

 cart.    s( 3) = ( -1.0000000  0.0000000  0.0000000 )    f =(  0.0000000 )
                  (  0.0000000  1.0000000  0.0000000 )       (  0.0000000 )
                  (  0.0000000  0.0000000 -1.0000000 )       (  1.6862348 )


      isym =  4     180 deg rotation - cart. axis [1,0,0]        

 cryst.   s( 4) = (     1          0          0      )
                  (    -1         -1          0      )
                  (     0          0         -1      )

 cart.    s( 4) = (  1.0000000  0.0000000  0.0000000 )
                  (  0.0000000 -1.0000000  0.0000000 )
                  (  0.0000000  0.0000000 -1.0000000 )


      isym =  5     inversion                                    

 cryst.   s( 5) = (    -1          0          0      )
                  (     0         -1          0      )
                  (     0          0         -1      )

 cart.    s( 5) = ( -1.0000000  0.0000000  0.0000000 )
                  (  0.0000000 -1.0000000  0.0000000 )
                  (  0.0000000  0.0000000 -1.0000000 )


      isym =  6     inv. 180 deg rotation - cart. axis [0,0,1]   

 cryst.   s( 6) = (     1          0          0      )    f =(  0.0000000 )
                  (     0          1          0      )       (  0.0000000 )
                  (     0          0         -1      )       (  0.5000000 )

 cart.    s( 6) = (  1.0000000  0.0000000  0.0000000 )    f =(  0.0000000 )
                  (  0.0000000  1.0000000  0.0000000 )       (  0.0000000 )
                  (  0.0000000  0.0000000 -1.0000000 )       (  1.6862348 )


      isym =  7     inv. 180 deg rotation - cart. axis [0,1,0]   

 cryst.   s( 7) = (     1          0          0      )    f =(  0.0000000 )
                  (    -1         -1          0      )       (  0.0000000 )
                  (     0          0          1      )       ( -0.5000000 )

 cart.    s( 7) = (  1.0000000  0.0000000  0.0000000 )    f =(  0.0000000 )
                  (  0.0000000 -1.0000000  0.0000000 )       (  0.0000000 )
                  (  0.0000000  0.0000000  1.0000000 )       ( -1.6862348 )


      isym =  8     inv. 180 deg rotation - cart. axis [1,0,0]   

 cryst.   s( 8) = (    -1          0          0      )
                  (     1          1          0      )
                  (     0          0          1      )

 cart.    s( 8) = ( -1.0000000  0.0000000  0.0000000 )
                  (  0.0000000  1.0000000  0.0000000 )
                  (  0.0000000  0.0000000  1.0000000 )


     point group D_2h (mmm) 
     there are  8 classes
     the character table:

       E     C2    C2'   C2''  i     s_v   s_v'  s_v''
A_g    1.00  1.00  1.00  1.00  1.00  1.00  1.00  1.00
B_1g   1.00  1.00 -1.00 -1.00  1.00  1.00 -1.00 -1.00
B_2g   1.00 -1.00  1.00 -1.00  1.00 -1.00  1.00 -1.00
B_3g   1.00 -1.00 -1.00  1.00  1.00 -1.00 -1.00  1.00
A_u    1.00  1.00  1.00  1.00 -1.00 -1.00 -1.00 -1.00
B_1u   1.00  1.00 -1.00 -1.00 -1.00 -1.00  1.00  1.00
B_2u   1.00 -1.00  1.00 -1.00 -1.00  1.00 -1.00  1.00
B_3u   1.00 -1.00 -1.00  1.00 -1.00  1.00  1.00 -1.00

     the symmetry operations in each class and the name of the first element:

     E        1
          identity                                               
     C2       2
          180 deg rotation - cart. axis [0,0,1]                  
     C2'      4
          180 deg rotation - cart. axis [1,0,0]                  
     C2''     3
          180 deg rotation - cart. axis [0,1,0]                  
     i        5
          inversion                                              
     s_v      6
          inv. 180 deg rotation - cart. axis [0,0,1]             
     s_v'     8
          inv. 180 deg rotation - cart. axis [1,0,0]             
     s_v''    7
          inv. 180 deg rotation - cart. axis [0,1,0]             

   Cartesian axes

     site n.     atom                  positions (alat units)
         1           C   tau(   1) = (   0.0000000   0.0000000   0.8431174  )
         2           C   tau(   2) = (   0.0000000   0.0000000   2.5293522  )
         3           C   tau(   3) = (   0.0000000   0.5772925   0.8431174  )
         4           C   tau(   4) = (   0.5000000   0.2887329   2.5293522  )

   Crystallographic axes

     site n.     atom                  positions (cryst. coord.)
         1           C   tau(   1) = (  0.0000000  0.0000000  0.2500000  )
         2           C   tau(   2) = (  0.0000000  0.0000000  0.7500000  )
         3           C   tau(   3) = (  0.3333000  0.6666000  0.2500000  )
         4           C   tau(   4) = (  0.6667000  0.3334000  0.7500000  )

     number of k points=   215  Methfessel-Paxton smearing, width (Ry)=  0.0300
                       cart. coord. in units 2pi/alat
        k(    1) = (   0.0000000   0.0000000   0.0000000), wk =   0.0017361
        k(    2) = (   0.0000000   0.0000000   0.0370648), wk =   0.0034722
        k(    3) = (   0.0000000   0.0000000   0.0741297), wk =   0.0034722
        k(    4) = (   0.0000000   0.0000000   0.1111945), wk =   0.0034722
        k(    5) = (   0.0000000   0.0000000  -0.1482593), wk =   0.0017361
        k(    6) = (   0.0000000   0.0962250   0.0000000), wk =   0.0034722
        k(    7) = (   0.0000000   0.0962250   0.0370648), wk =   0.0069444
        k(    8) = (   0.0000000   0.0962250   0.0741297), wk =   0.0069444
        k(    9) = (   0.0000000   0.0962250   0.1111945), wk =   0.0069444
        k(   10) = (   0.0000000   0.0962250  -0.1482593), wk =   0.0034722
        k(   11) = (   0.0000000   0.1924501   0.0000000), wk =   0.0034722
        k(   12) = (   0.0000000   0.1924501   0.0370648), wk =   0.0069444
        k(   13) = (   0.0000000   0.1924501   0.0741297), wk =   0.0069444
        k(   14) = (   0.0000000   0.1924501   0.1111945), wk =   0.0069444
        k(   15) = (   0.0000000   0.1924501  -0.1482593), wk =   0.0034722
        k(   16) = (   0.0000000   0.2886751   0.0000000), wk =   0.0034722
        k(   17) = (   0.0000000   0.2886751   0.0370648), wk =   0.0069444
        k(   18) = (   0.0000000   0.2886751   0.0741297), wk =   0.0069444
        k(   19) = (   0.0000000   0.2886751   0.1111945), wk =   0.0069444
        k(   20) = (   0.0000000   0.2886751  -0.1482593), wk =   0.0034722
        k(   21) = (   0.0000000   0.3849002   0.0000000), wk =   0.0034722
        k(   22) = (   0.0000000   0.3849002   0.0370648), wk =   0.0069444
        k(   23) = (   0.0000000   0.3849002   0.0741297), wk =   0.0069444
        k(   24) = (   0.0000000   0.3849002   0.1111945), wk =   0.0069444
        k(   25) = (   0.0000000   0.3849002  -0.1482593), wk =   0.0034722
        k(   26) = (   0.0000000   0.4811252   0.0000000), wk =   0.0034722
        k(   27) = (   0.0000000   0.4811252   0.0370648), wk =   0.0069444
        k(   28) = (   0.0000000   0.4811252   0.0741297), wk =   0.0069444
        k(   29) = (   0.0000000   0.4811252   0.1111945), wk =   0.0069444
        k(   30) = (   0.0000000   0.4811252  -0.1482593), wk =   0.0034722
        k(   31) = (   0.0000000  -0.5773503   0.0000000), wk =   0.0017361
        k(   32) = (   0.0000000  -0.5773503   0.0370648), wk =   0.0034722
        k(   33) = (   0.0000000  -0.5773503   0.0741297), wk =   0.0034722
        k(   34) = (   0.0000000  -0.5773503   0.1111945), wk =   0.0034722
        k(   35) = (   0.0000000  -0.5773503  -0.1482593), wk =   0.0017361
        k(   36) = (   0.0833333   0.1443376   0.0000000), wk =   0.0069444
        k(   37) = (   0.0833333   0.1443376   0.0370648), wk =   0.0138889
        k(   38) = (   0.0833333   0.1443376   0.0741297), wk =   0.0138889
        k(   39) = (   0.0833333   0.1443376   0.1111945), wk =   0.0138889
        k(   40) = (   0.0833333   0.1443376  -0.1482593), wk =   0.0069444
        k(   41) = (   0.0833333   0.2405626   0.0000000), wk =   0.0069444
        k(   42) = (   0.0833333   0.2405626   0.0370648), wk =   0.0138889
        k(   43) = (   0.0833333   0.2405626   0.0741297), wk =   0.0138889
        k(   44) = (   0.0833333   0.2405626   0.1111945), wk =   0.0138889
        k(   45) = (   0.0833333   0.2405626  -0.1482593), wk =   0.0069444
        k(   46) = (   0.0833333   0.3367877   0.0000000), wk =   0.0069444
        k(   47) = (   0.0833333   0.3367877   0.0370648), wk =   0.0138889
        k(   48) = (   0.0833333   0.3367877   0.0741297), wk =   0.0138889
        k(   49) = (   0.0833333   0.3367877   0.1111945), wk =   0.0138889
        k(   50) = (   0.0833333   0.3367877  -0.1482593), wk =   0.0069444
        k(   51) = (   0.0833333   0.4330127   0.0000000), wk =   0.0069444
        k(   52) = (   0.0833333   0.4330127   0.0370648), wk =   0.0138889
        k(   53) = (   0.0833333   0.4330127   0.0741297), wk =   0.0138889
        k(   54) = (   0.0833333   0.4330127   0.1111945), wk =   0.0138889
        k(   55) = (   0.0833333   0.4330127  -0.1482593), wk =   0.0069444
        k(   56) = (   0.0833333   0.5292377   0.0000000), wk =   0.0069444
        k(   57) = (   0.0833333   0.5292377   0.0370648), wk =   0.0138889
        k(   58) = (   0.0833333   0.5292377   0.0741297), wk =   0.0138889
        k(   59) = (   0.0833333   0.5292377   0.1111945), wk =   0.0138889
        k(   60) = (   0.0833333   0.5292377  -0.1482593), wk =   0.0069444
        k(   61) = (   0.1666667   0.2886751   0.0000000), wk =   0.0069444
        k(   62) = (   0.1666667   0.2886751   0.0370648), wk =   0.0138889
        k(   63) = (   0.1666667   0.2886751   0.0741297), wk =   0.0138889
        k(   64) = (   0.1666667   0.2886751   0.1111945), wk =   0.0138889
        k(   65) = (   0.1666667   0.2886751  -0.1482593), wk =   0.0069444
        k(   66) = (   0.1666667   0.3849002   0.0000000), wk =   0.0069444
        k(   67) = (   0.1666667   0.3849002   0.0370648), wk =   0.0138889
        k(   68) = (   0.1666667   0.3849002   0.0741297), wk =   0.0138889
        k(   69) = (   0.1666667   0.3849002   0.1111945), wk =   0.0138889
        k(   70) = (   0.1666667   0.3849002  -0.1482593), wk =   0.0069444
        k(   71) = (   0.1666667   0.4811252   0.0000000), wk =   0.0069444
        k(   72) = (   0.1666667   0.4811252   0.0370648), wk =   0.0138889
        k(   73) = (   0.1666667   0.4811252   0.0741297), wk =   0.0138889
        k(   74) = (   0.1666667   0.4811252   0.1111945), wk =   0.0138889
        k(   75) = (   0.1666667   0.4811252  -0.1482593), wk =   0.0069444
        k(   76) = (   0.1666667   0.5773503   0.0000000), wk =   0.0034722
        k(   77) = (   0.1666667   0.5773503   0.0370648), wk =   0.0069444
        k(   78) = (   0.1666667   0.5773503   0.0741297), wk =   0.0069444
        k(   79) = (   0.1666667   0.5773503   0.1111945), wk =   0.0069444
        k(   80) = (   0.1666667   0.5773503  -0.1482593), wk =   0.0034722
        k(   81) = (   0.2500000   0.4330127   0.0000000), wk =   0.0069444
        k(   82) = (   0.2500000   0.4330127   0.0370648), wk =   0.0138889
        k(   83) = (   0.2500000   0.4330127   0.0741297), wk =   0.0138889
        k(   84) = (   0.2500000   0.4330127   0.1111945), wk =   0.0138889
        k(   85) = (   0.2500000   0.4330127  -0.1482593), wk =   0.0069444
        k(   86) = (   0.2500000   0.5292377   0.0000000), wk =   0.0069444
        k(   87) = (   0.2500000   0.5292377   0.0370648), wk =   0.0138889
        k(   88) = (   0.2500000   0.5292377   0.0741297), wk =   0.0138889
        k(   89) = (   0.2500000   0.5292377   0.1111945), wk =   0.0138889
        k(   90) = (   0.2500000   0.5292377  -0.1482593), wk =   0.0069444
        k(   91) = (   0.3333333   0.5773503   0.0000000), wk =   0.0034722
        k(   92) = (   0.3333333   0.5773503   0.0370648), wk =   0.0069444
        k(   93) = (   0.3333333   0.5773503   0.0741297), wk =   0.0069444
        k(   94) = (   0.3333333   0.5773503   0.1111945), wk =   0.0069444
        k(   95) = (   0.3333333   0.5773503  -0.1482593), wk =   0.0034722
        k(   96) = (  -0.0833333  -0.0481125   0.0000000), wk =   0.0069444
        k(   97) = (  -0.0833333  -0.0481125  -0.0370648), wk =   0.0138889
        k(   98) = (  -0.0833333  -0.0481125  -0.0741297), wk =   0.0138889
        k(   99) = (  -0.0833333  -0.0481125  -0.1111945), wk =   0.0138889
        k(  100) = (  -0.0833333  -0.0481125   0.1482593), wk =   0.0069444
        k(  101) = (  -0.1666667  -0.0962250   0.0000000), wk =   0.0069444
        k(  102) = (  -0.1666667  -0.0962250  -0.0370648), wk =   0.0138889
        k(  103) = (  -0.1666667  -0.0962250  -0.0741297), wk =   0.0138889
        k(  104) = (  -0.1666667  -0.0962250  -0.1111945), wk =   0.0138889
        k(  105) = (  -0.1666667  -0.0962250   0.1482593), wk =   0.0069444
        k(  106) = (  -0.2500000  -0.1443376   0.0000000), wk =   0.0069444
        k(  107) = (  -0.2500000  -0.1443376  -0.0370648), wk =   0.0138889
        k(  108) = (  -0.2500000  -0.1443376  -0.0741297), wk =   0.0138889
        k(  109) = (  -0.2500000  -0.1443376  -0.1111945), wk =   0.0138889
        k(  110) = (  -0.2500000  -0.1443376   0.1482593), wk =   0.0069444
        k(  111) = (  -0.3333333  -0.1924501   0.0000000), wk =   0.0069444
        k(  112) = (  -0.3333333  -0.1924501  -0.0370648), wk =   0.0138889
        k(  113) = (  -0.3333333  -0.1924501  -0.0741297), wk =   0.0138889
        k(  114) = (  -0.3333333  -0.1924501  -0.1111945), wk =   0.0138889
        k(  115) = (  -0.3333333  -0.1924501   0.1482593), wk =   0.0069444
        k(  116) = (  -0.4166667  -0.2405626   0.0000000), wk =   0.0069444
        k(  117) = (  -0.4166667  -0.2405626  -0.0370648), wk =   0.0138889
        k(  118) = (  -0.4166667  -0.2405626  -0.0741297), wk =   0.0138889
        k(  119) = (  -0.4166667  -0.2405626  -0.1111945), wk =   0.0138889
        k(  120) = (  -0.4166667  -0.2405626   0.1482593), wk =   0.0069444
        k(  121) = (   0.5000000   0.2886751   0.0000000), wk =   0.0034722
        k(  122) = (   0.5000000   0.2886751  -0.0370648), wk =   0.0069444
        k(  123) = (   0.5000000   0.2886751  -0.0741297), wk =   0.0069444
        k(  124) = (   0.5000000   0.2886751  -0.1111945), wk =   0.0069444
        k(  125) = (   0.5000000   0.2886751   0.1482593), wk =   0.0034722
        k(  126) = (   0.1666667   0.0000000   0.0000000), wk =   0.0034722
        k(  127) = (   0.1666667   0.0000000  -0.0370648), wk =   0.0069444
        k(  128) = (   0.1666667   0.0000000  -0.0741297), wk =   0.0069444
        k(  129) = (   0.1666667   0.0000000  -0.1111945), wk =   0.0069444
        k(  130) = (   0.1666667   0.0000000   0.1482593), wk =   0.0034722
        k(  131) = (  -0.1666667  -0.1924501   0.0000000), wk =   0.0069444
        k(  132) = (   0.2500000  -0.0481125   0.0000000), wk =   0.0069444
        k(  133) = (  -0.1666667  -0.1924501  -0.0370648), wk =   0.0138889
        k(  134) = (   0.2500000  -0.0481125  -0.0370648), wk =   0.0138889
        k(  135) = (  -0.1666667  -0.1924501  -0.0741297), wk =   0.0138889
        k(  136) = (   0.2500000  -0.0481125  -0.0741297), wk =   0.0138889
        k(  137) = (  -0.1666667  -0.1924501  -0.1111945), wk =   0.0138889
        k(  138) = (   0.2500000  -0.0481125  -0.1111945), wk =   0.0138889
        k(  139) = (  -0.1666667  -0.1924501   0.1482593), wk =   0.0069444
        k(  140) = (   0.2500000  -0.0481125   0.1482593), wk =   0.0069444
        k(  141) = (  -0.2500000  -0.2405626   0.0000000), wk =   0.0069444
        k(  142) = (   0.3333333  -0.0962250   0.0000000), wk =   0.0069444
        k(  143) = (  -0.2500000  -0.2405626  -0.0370648), wk =   0.0138889
        k(  144) = (   0.3333333  -0.0962250  -0.0370648), wk =   0.0138889
        k(  145) = (  -0.2500000  -0.2405626  -0.0741297), wk =   0.0138889
        k(  146) = (   0.3333333  -0.0962250  -0.0741297), wk =   0.0138889
        k(  147) = (  -0.2500000  -0.2405626  -0.1111945), wk =   0.0138889
        k(  148) = (   0.3333333  -0.0962250  -0.1111945), wk =   0.0138889
        k(  149) = (  -0.2500000  -0.2405626   0.1482593), wk =   0.0069444
        k(  150) = (   0.3333333  -0.0962250   0.1482593), wk =   0.0069444
        k(  151) = (  -0.3333333  -0.2886751   0.0000000), wk =   0.0069444
        k(  152) = (   0.4166667  -0.1443376   0.0000000), wk =   0.0069444
        k(  153) = (  -0.3333333  -0.2886751  -0.0370648), wk =   0.0138889
        k(  154) = (   0.4166667  -0.1443376  -0.0370648), wk =   0.0138889
        k(  155) = (  -0.3333333  -0.2886751  -0.0741297), wk =   0.0138889
        k(  156) = (   0.4166667  -0.1443376  -0.0741297), wk =   0.0138889
        k(  157) = (  -0.3333333  -0.2886751  -0.1111945), wk =   0.0138889
        k(  158) = (   0.4166667  -0.1443376  -0.1111945), wk =   0.0138889
        k(  159) = (  -0.3333333  -0.2886751   0.1482593), wk =   0.0069444
        k(  160) = (   0.4166667  -0.1443376   0.1482593), wk =   0.0069444
        k(  161) = (  -0.4166667  -0.3367877   0.0000000), wk =   0.0069444
        k(  162) = (   0.5000000  -0.1924501   0.0000000), wk =   0.0069444
        k(  163) = (  -0.4166667  -0.3367877  -0.0370648), wk =   0.0138889
        k(  164) = (   0.5000000  -0.1924501  -0.0370648), wk =   0.0138889
        k(  165) = (  -0.4166667  -0.3367877  -0.0741297), wk =   0.0138889
        k(  166) = (   0.5000000  -0.1924501  -0.0741297), wk =   0.0138889
        k(  167) = (  -0.4166667  -0.3367877  -0.1111945), wk =   0.0138889
        k(  168) = (   0.5000000  -0.1924501  -0.1111945), wk =   0.0138889
        k(  169) = (  -0.4166667  -0.3367877   0.1482593), wk =   0.0069444
        k(  170) = (   0.5000000  -0.1924501   0.1482593), wk =   0.0069444
        k(  171) = (   0.3333333   0.0000000   0.0000000), wk =   0.0034722
        k(  172) = (   0.3333333   0.0000000  -0.0370648), wk =   0.0069444
        k(  173) = (   0.3333333   0.0000000  -0.0741297), wk =   0.0069444
        k(  174) = (   0.3333333   0.0000000  -0.1111945), wk =   0.0069444
        k(  175) = (   0.3333333   0.0000000   0.1482593), wk =   0.0034722
        k(  176) = (  -0.2500000  -0.3367877   0.0000000), wk =   0.0069444
        k(  177) = (   0.4166667  -0.0481125   0.0000000), wk =   0.0069444
        k(  178) = (  -0.2500000  -0.3367877  -0.0370648), wk =   0.0138889
        k(  179) = (   0.4166667  -0.0481125  -0.0370648), wk =   0.0138889
        k(  180) = (  -0.2500000  -0.3367877  -0.0741297), wk =   0.0138889
        k(  181) = (   0.4166667  -0.0481125  -0.0741297), wk =   0.0138889
        k(  182) = (  -0.2500000  -0.3367877  -0.1111945), wk =   0.0138889
        k(  183) = (   0.4166667  -0.0481125  -0.1111945), wk =   0.0138889
        k(  184) = (  -0.2500000  -0.3367877   0.1482593), wk =   0.0069444
        k(  185) = (   0.4166667  -0.0481125   0.1482593), wk =   0.0069444
        k(  186) = (  -0.3333333  -0.3849002   0.0000000), wk =   0.0069444
        k(  187) = (   0.5000000  -0.0962250   0.0000000), wk =   0.0069444
        k(  188) = (  -0.3333333  -0.3849002  -0.0370648), wk =   0.0138889
        k(  189) = (   0.5000000  -0.0962250  -0.0370648), wk =   0.0138889
        k(  190) = (  -0.3333333  -0.3849002  -0.0741297), wk =   0.0138889
        k(  191) = (   0.5000000  -0.0962250  -0.0741297), wk =   0.0138889
        k(  192) = (  -0.3333333  -0.3849002  -0.1111945), wk =   0.0138889
        k(  193) = (   0.5000000  -0.0962250  -0.1111945), wk =   0.0138889
        k(  194) = (  -0.3333333  -0.3849002   0.1482593), wk =   0.0069444
        k(  195) = (   0.5000000  -0.0962250   0.1482593), wk =   0.0069444
        k(  196) = (  -0.4166667  -0.4330127   0.0000000), wk =   0.0069444
        k(  197) = (  -0.4166667  -0.4330127  -0.0370648), wk =   0.0138889
        k(  198) = (  -0.4166667  -0.4330127  -0.0741297), wk =   0.0138889
        k(  199) = (  -0.4166667  -0.4330127  -0.1111945), wk =   0.0138889
        k(  200) = (  -0.4166667  -0.4330127   0.1482593), wk =   0.0069444
        k(  201) = (   0.5000000  -0.0000000   0.0000000), wk =   0.0034722
        k(  202) = (   0.5000000  -0.0000000  -0.0370648), wk =   0.0069444
        k(  203) = (   0.5000000  -0.0000000  -0.0741297), wk =   0.0069444
        k(  204) = (   0.5000000  -0.0000000  -0.1111945), wk =   0.0069444
        k(  205) = (   0.5000000  -0.0000000   0.1482593), wk =   0.0034722
        k(  206) = (  -0.3333333  -0.4811252   0.0000000), wk =   0.0069444
        k(  207) = (   0.5833333  -0.0481125   0.0000000), wk =   0.0069444
        k(  208) = (  -0.3333333  -0.4811252  -0.0370648), wk =   0.0138889
        k(  209) = (   0.5833333  -0.0481125  -0.0370648), wk =   0.0138889
        k(  210) = (  -0.3333333  -0.4811252  -0.0741297), wk =   0.0138889
        k(  211) = (   0.5833333  -0.0481125  -0.0741297), wk =   0.0138889
        k(  212) = (  -0.3333333  -0.4811252  -0.1111945), wk =   0.0138889
        k(  213) = (   0.5833333  -0.0481125  -0.1111945), wk =   0.0138889
        k(  214) = (  -0.3333333  -0.4811252   0.1482593), wk =   0.0069444
        k(  215) = (   0.5833333  -0.0481125   0.1482593), wk =   0.0069444

                       cryst. coord.
        k(    1) = (   0.0000000   0.0000000   0.0000000), wk =   0.0017361
        k(    2) = (   0.0000000   0.0000000   0.1250000), wk =   0.0034722
        k(    3) = (   0.0000000   0.0000000   0.2500000), wk =   0.0034722
        k(    4) = (   0.0000000   0.0000000   0.3750000), wk =   0.0034722
        k(    5) = (   0.0000000   0.0000000  -0.5000000), wk =   0.0017361
        k(    6) = (   0.0000000   0.0833333   0.0000000), wk =   0.0034722
        k(    7) = (   0.0000000   0.0833333   0.1250000), wk =   0.0069444
        k(    8) = (   0.0000000   0.0833333   0.2500000), wk =   0.0069444
        k(    9) = (   0.0000000   0.0833333   0.3750000), wk =   0.0069444
        k(   10) = (   0.0000000   0.0833333  -0.5000000), wk =   0.0034722
        k(   11) = (   0.0000000   0.1666667   0.0000000), wk =   0.0034722
        k(   12) = (   0.0000000   0.1666667   0.1250000), wk =   0.0069444
        k(   13) = (   0.0000000   0.1666667   0.2500000), wk =   0.0069444
        k(   14) = (   0.0000000   0.1666667   0.3750000), wk =   0.0069444
        k(   15) = (   0.0000000   0.1666667  -0.5000000), wk =   0.0034722
        k(   16) = (   0.0000000   0.2500000   0.0000000), wk =   0.0034722
        k(   17) = (   0.0000000   0.2500000   0.1250000), wk =   0.0069444
        k(   18) = (   0.0000000   0.2500000   0.2500000), wk =   0.0069444
        k(   19) = (   0.0000000   0.2500000   0.3750000), wk =   0.0069444
        k(   20) = (   0.0000000   0.2500000  -0.5000000), wk =   0.0034722
        k(   21) = (   0.0000000   0.3333333   0.0000000), wk =   0.0034722
        k(   22) = (   0.0000000   0.3333333   0.1250000), wk =   0.0069444
        k(   23) = (   0.0000000   0.3333333   0.2500000), wk =   0.0069444
        k(   24) = (   0.0000000   0.3333333   0.3750000), wk =   0.0069444
        k(   25) = (   0.0000000   0.3333333  -0.5000000), wk =   0.0034722
        k(   26) = (   0.0000000   0.4166667   0.0000000), wk =   0.0034722
        k(   27) = (   0.0000000   0.4166667   0.1250000), wk =   0.0069444
        k(   28) = (   0.0000000   0.4166667   0.2500000), wk =   0.0069444
        k(   29) = (   0.0000000   0.4166667   0.3750000), wk =   0.0069444
        k(   30) = (   0.0000000   0.4166667  -0.5000000), wk =   0.0034722
        k(   31) = (   0.0000000  -0.5000000   0.0000000), wk =   0.0017361
        k(   32) = (   0.0000000  -0.5000000   0.1250000), wk =   0.0034722
        k(   33) = (   0.0000000  -0.5000000   0.2500000), wk =   0.0034722
        k(   34) = (   0.0000000  -0.5000000   0.3750000), wk =   0.0034722
        k(   35) = (   0.0000000  -0.5000000  -0.5000000), wk =   0.0017361
        k(   36) = (   0.0833333   0.0833333   0.0000000), wk =   0.0069444
        k(   37) = (   0.0833333   0.0833333   0.1250000), wk =   0.0138889
        k(   38) = (   0.0833333   0.0833333   0.2500000), wk =   0.0138889
        k(   39) = (   0.0833333   0.0833333   0.3750000), wk =   0.0138889
        k(   40) = (   0.0833333   0.0833333  -0.5000000), wk =   0.0069444
        k(   41) = (   0.0833333   0.1666667   0.0000000), wk =   0.0069444
        k(   42) = (   0.0833333   0.1666667   0.1250000), wk =   0.0138889
        k(   43) = (   0.0833333   0.1666667   0.2500000), wk =   0.0138889
        k(   44) = (   0.0833333   0.1666667   0.3750000), wk =   0.0138889
        k(   45) = (   0.0833333   0.1666667  -0.5000000), wk =   0.0069444
        k(   46) = (   0.0833333   0.2500000   0.0000000), wk =   0.0069444
        k(   47) = (   0.0833333   0.2500000   0.1250000), wk =   0.0138889
        k(   48) = (   0.0833333   0.2500000   0.2500000), wk =   0.0138889
        k(   49) = (   0.0833333   0.2500000   0.3750000), wk =   0.0138889
        k(   50) = (   0.0833333   0.2500000  -0.5000000), wk =   0.0069444
        k(   51) = (   0.0833333   0.3333333   0.0000000), wk =   0.0069444
        k(   52) = (   0.0833333   0.3333333   0.1250000), wk =   0.0138889
        k(   53) = (   0.0833333   0.3333333   0.2500000), wk =   0.0138889
        k(   54) = (   0.0833333   0.3333333   0.3750000), wk =   0.0138889
        k(   55) = (   0.0833333   0.3333333  -0.5000000), wk =   0.0069444
        k(   56) = (   0.0833333   0.4166667   0.0000000), wk =   0.0069444
        k(   57) = (   0.0833333   0.4166667   0.1250000), wk =   0.0138889
        k(   58) = (   0.0833333   0.4166667   0.2500000), wk =   0.0138889
        k(   59) = (   0.0833333   0.4166667   0.3750000), wk =   0.0138889
        k(   60) = (   0.0833333   0.4166667  -0.5000000), wk =   0.0069444
        k(   61) = (   0.1666667   0.1666667   0.0000000), wk =   0.0069444
        k(   62) = (   0.1666667   0.1666667   0.1250000), wk =   0.0138889
        k(   63) = (   0.1666667   0.1666667   0.2500000), wk =   0.0138889
        k(   64) = (   0.1666667   0.1666667   0.3750000), wk =   0.0138889
        k(   65) = (   0.1666667   0.1666667  -0.5000000), wk =   0.0069444
        k(   66) = (   0.1666667   0.2500000   0.0000000), wk =   0.0069444
        k(   67) = (   0.1666667   0.2500000   0.1250000), wk =   0.0138889
        k(   68) = (   0.1666667   0.2500000   0.2500000), wk =   0.0138889
        k(   69) = (   0.1666667   0.2500000   0.3750000), wk =   0.0138889
        k(   70) = (   0.1666667   0.2500000  -0.5000000), wk =   0.0069444
        k(   71) = (   0.1666667   0.3333333   0.0000000), wk =   0.0069444
        k(   72) = (   0.1666667   0.3333333   0.1250000), wk =   0.0138889
        k(   73) = (   0.1666667   0.3333333   0.2500000), wk =   0.0138889
        k(   74) = (   0.1666667   0.3333333   0.3750000), wk =   0.0138889
        k(   75) = (   0.1666667   0.3333333  -0.5000000), wk =   0.0069444
        k(   76) = (   0.1666667   0.4166667   0.0000000), wk =   0.0034722
        k(   77) = (   0.1666667   0.4166667   0.1250000), wk =   0.0069444
        k(   78) = (   0.1666667   0.4166667   0.2500000), wk =   0.0069444
        k(   79) = (   0.1666667   0.4166667   0.3750000), wk =   0.0069444
        k(   80) = (   0.1666667   0.4166667  -0.5000000), wk =   0.0034722
        k(   81) = (   0.2500000   0.2500000   0.0000000), wk =   0.0069444
        k(   82) = (   0.2500000   0.2500000   0.1250000), wk =   0.0138889
        k(   83) = (   0.2500000   0.2500000   0.2500000), wk =   0.0138889
        k(   84) = (   0.2500000   0.2500000   0.3750000), wk =   0.0138889
        k(   85) = (   0.2500000   0.2500000  -0.5000000), wk =   0.0069444
        k(   86) = (   0.2500000   0.3333333   0.0000000), wk =   0.0069444
        k(   87) = (   0.2500000   0.3333333   0.1250000), wk =   0.0138889
        k(   88) = (   0.2500000   0.3333333   0.2500000), wk =   0.0138889
        k(   89) = (   0.2500000   0.3333333   0.3750000), wk =   0.0138889
        k(   90) = (   0.2500000   0.3333333  -0.5000000), wk =   0.0069444
        k(   91) = (   0.3333333   0.3333333   0.0000000), wk =   0.0034722
        k(   92) = (   0.3333333   0.3333333   0.1250000), wk =   0.0069444
        k(   93) = (   0.3333333   0.3333333   0.2500000), wk =   0.0069444
        k(   94) = (   0.3333333   0.3333333   0.3750000), wk =   0.0069444
        k(   95) = (   0.3333333   0.3333333  -0.5000000), wk =   0.0034722
        k(   96) = (  -0.0833333  -0.0000000   0.0000000), wk =   0.0069444
        k(   97) = (  -0.0833333  -0.0000000  -0.1250000), wk =   0.0138889
        k(   98) = (  -0.0833333  -0.0000000  -0.2500000), wk =   0.0138889
        k(   99) = (  -0.0833333  -0.0000000  -0.3750000), wk =   0.0138889
        k(  100) = (  -0.0833333  -0.0000000   0.5000000), wk =   0.0069444
        k(  101) = (  -0.1666667  -0.0000000   0.0000000), wk =   0.0069444
        k(  102) = (  -0.1666667  -0.0000000  -0.1250000), wk =   0.0138889
        k(  103) = (  -0.1666667  -0.0000000  -0.2500000), wk =   0.0138889
        k(  104) = (  -0.1666667  -0.0000000  -0.3750000), wk =   0.0138889
        k(  105) = (  -0.1666667  -0.0000000   0.5000000), wk =   0.0069444
        k(  106) = (  -0.2500000   0.0000000   0.0000000), wk =   0.0069444
        k(  107) = (  -0.2500000   0.0000000  -0.1250000), wk =   0.0138889
        k(  108) = (  -0.2500000   0.0000000  -0.2500000), wk =   0.0138889
        k(  109) = (  -0.2500000   0.0000000  -0.3750000), wk =   0.0138889
        k(  110) = (  -0.2500000   0.0000000   0.5000000), wk =   0.0069444
        k(  111) = (  -0.3333333  -0.0000000   0.0000000), wk =   0.0069444
        k(  112) = (  -0.3333333  -0.0000000  -0.1250000), wk =   0.0138889
        k(  113) = (  -0.3333333  -0.0000000  -0.2500000), wk =   0.0138889
        k(  114) = (  -0.3333333  -0.0000000  -0.3750000), wk =   0.0138889
        k(  115) = (  -0.3333333  -0.0000000   0.5000000), wk =   0.0069444
        k(  116) = (  -0.4166667   0.0000000   0.0000000), wk =   0.0069444
        k(  117) = (  -0.4166667   0.0000000  -0.1250000), wk =   0.0138889
        k(  118) = (  -0.4166667   0.0000000  -0.2500000), wk =   0.0138889
        k(  119) = (  -0.4166667   0.0000000  -0.3750000), wk =   0.0138889
        k(  120) = (  -0.4166667   0.0000000   0.5000000), wk =   0.0069444
        k(  121) = (   0.5000000   0.0000000   0.0000000), wk =   0.0034722
        k(  122) = (   0.5000000   0.0000000  -0.1250000), wk =   0.0069444
        k(  123) = (   0.5000000   0.0000000  -0.2500000), wk =   0.0069444
        k(  124) = (   0.5000000   0.0000000  -0.3750000), wk =   0.0069444
        k(  125) = (   0.5000000   0.0000000   0.5000000), wk =   0.0034722
        k(  126) = (   0.1666667  -0.0833333   0.0000000), wk =   0.0034722
        k(  127) = (   0.1666667  -0.0833333  -0.1250000), wk =   0.0069444
        k(  128) = (   0.1666667  -0.0833333  -0.2500000), wk =   0.0069444
        k(  129) = (   0.1666667  -0.0833333  -0.3750000), wk =   0.0069444
        k(  130) = (   0.1666667  -0.0833333   0.5000000), wk =   0.0034722
        k(  131) = (  -0.1666667  -0.0833333   0.0000000), wk =   0.0069444
        k(  132) = (   0.2500000  -0.1666667   0.0000000), wk =   0.0069444
        k(  133) = (  -0.1666667  -0.0833333  -0.1250000), wk =   0.0138889
        k(  134) = (   0.2500000  -0.1666667  -0.1250000), wk =   0.0138889
        k(  135) = (  -0.1666667  -0.0833333  -0.2500000), wk =   0.0138889
        k(  136) = (   0.2500000  -0.1666667  -0.2500000), wk =   0.0138889
        k(  137) = (  -0.1666667  -0.0833333  -0.3750000), wk =   0.0138889
        k(  138) = (   0.2500000  -0.1666667  -0.3750000), wk =   0.0138889
        k(  139) = (  -0.1666667  -0.0833333   0.5000000), wk =   0.0069444
        k(  140) = (   0.2500000  -0.1666667   0.5000000), wk =   0.0069444
        k(  141) = (  -0.2500000  -0.0833333   0.0000000), wk =   0.0069444
        k(  142) = (   0.3333333  -0.2500000   0.0000000), wk =   0.0069444
        k(  143) = (  -0.2500000  -0.0833333  -0.1250000), wk =   0.0138889
        k(  144) = (   0.3333333  -0.2500000  -0.1250000), wk =   0.0138889
        k(  145) = (  -0.2500000  -0.0833333  -0.2500000), wk =   0.0138889
        k(  146) = (   0.3333333  -0.2500000  -0.2500000), wk =   0.0138889
        k(  147) = (  -0.2500000  -0.0833333  -0.3750000), wk =   0.0138889
        k(  148) = (   0.3333333  -0.2500000  -0.3750000), wk =   0.0138889
        k(  149) = (  -0.2500000  -0.0833333   0.5000000), wk =   0.0069444
        k(  150) = (   0.3333333  -0.2500000   0.5000000), wk =   0.0069444
        k(  151) = (  -0.3333333  -0.0833333   0.0000000), wk =   0.0069444
        k(  152) = (   0.4166667  -0.3333333   0.0000000), wk =   0.0069444
        k(  153) = (  -0.3333333  -0.0833333  -0.1250000), wk =   0.0138889
        k(  154) = (   0.4166667  -0.3333333  -0.1250000), wk =   0.0138889
        k(  155) = (  -0.3333333  -0.0833333  -0.2500000), wk =   0.0138889
        k(  156) = (   0.4166667  -0.3333333  -0.2500000), wk =   0.0138889
        k(  157) = (  -0.3333333  -0.0833333  -0.3750000), wk =   0.0138889
        k(  158) = (   0.4166667  -0.3333333  -0.3750000), wk =   0.0138889
        k(  159) = (  -0.3333333  -0.0833333   0.5000000), wk =   0.0069444
        k(  160) = (   0.4166667  -0.3333333   0.5000000), wk =   0.0069444
        k(  161) = (  -0.4166667  -0.0833333   0.0000000), wk =   0.0069444
        k(  162) = (   0.5000000  -0.4166667   0.0000000), wk =   0.0069444
        k(  163) = (  -0.4166667  -0.0833333  -0.1250000), wk =   0.0138889
        k(  164) = (   0.5000000  -0.4166667  -0.1250000), wk =   0.0138889
        k(  165) = (  -0.4166667  -0.0833333  -0.2500000), wk =   0.0138889
        k(  166) = (   0.5000000  -0.4166667  -0.2500000), wk =   0.0138889
        k(  167) = (  -0.4166667  -0.0833333  -0.3750000), wk =   0.0138889
        k(  168) = (   0.5000000  -0.4166667  -0.3750000), wk =   0.0138889
        k(  169) = (  -0.4166667  -0.0833333   0.5000000), wk =   0.0069444
        k(  170) = (   0.5000000  -0.4166667   0.5000000), wk =   0.0069444
        k(  171) = (   0.3333333  -0.1666667   0.0000000), wk =   0.0034722
        k(  172) = (   0.3333333  -0.1666667  -0.1250000), wk =   0.0069444
        k(  173) = (   0.3333333  -0.1666667  -0.2500000), wk =   0.0069444
        k(  174) = (   0.3333333  -0.1666667  -0.3750000), wk =   0.0069444
        k(  175) = (   0.3333333  -0.1666667   0.5000000), wk =   0.0034722
        k(  176) = (  -0.2500000  -0.1666667   0.0000000), wk =   0.0069444
        k(  177) = (   0.4166667  -0.2500000   0.0000000), wk =   0.0069444
        k(  178) = (  -0.2500000  -0.1666667  -0.1250000), wk =   0.0138889
        k(  179) = (   0.4166667  -0.2500000  -0.1250000), wk =   0.0138889
        k(  180) = (  -0.2500000  -0.1666667  -0.2500000), wk =   0.0138889
        k(  181) = (   0.4166667  -0.2500000  -0.2500000), wk =   0.0138889
        k(  182) = (  -0.2500000  -0.1666667  -0.3750000), wk =   0.0138889
        k(  183) = (   0.4166667  -0.2500000  -0.3750000), wk =   0.0138889
        k(  184) = (  -0.2500000  -0.1666667   0.5000000), wk =   0.0069444
        k(  185) = (   0.4166667  -0.2500000   0.5000000), wk =   0.0069444
        k(  186) = (  -0.3333333  -0.1666667   0.0000000), wk =   0.0069444
        k(  187) = (   0.5000000  -0.3333333   0.0000000), wk =   0.0069444
        k(  188) = (  -0.3333333  -0.1666667  -0.1250000), wk =   0.0138889
        k(  189) = (   0.5000000  -0.3333333  -0.1250000), wk =   0.0138889
        k(  190) = (  -0.3333333  -0.1666667  -0.2500000), wk =   0.0138889
        k(  191) = (   0.5000000  -0.3333333  -0.2500000), wk =   0.0138889
        k(  192) = (  -0.3333333  -0.1666667  -0.3750000), wk =   0.0138889
        k(  193) = (   0.5000000  -0.3333333  -0.3750000), wk =   0.0138889
        k(  194) = (  -0.3333333  -0.1666667   0.5000000), wk =   0.0069444
        k(  195) = (   0.5000000  -0.3333333   0.5000000), wk =   0.0069444
        k(  196) = (  -0.4166667  -0.1666667   0.0000000), wk =   0.0069444
        k(  197) = (  -0.4166667  -0.1666667  -0.1250000), wk =   0.0138889
        k(  198) = (  -0.4166667  -0.1666667  -0.2500000), wk =   0.0138889
        k(  199) = (  -0.4166667  -0.1666667  -0.3750000), wk =   0.0138889
        k(  200) = (  -0.4166667  -0.1666667   0.5000000), wk =   0.0069444
        k(  201) = (   0.5000000  -0.2500000   0.0000000), wk =   0.0034722
        k(  202) = (   0.5000000  -0.2500000  -0.1250000), wk =   0.0069444
        k(  203) = (   0.5000000  -0.2500000  -0.2500000), wk =   0.0069444
        k(  204) = (   0.5000000  -0.2500000  -0.3750000), wk =   0.0069444
        k(  205) = (   0.5000000  -0.2500000   0.5000000), wk =   0.0034722
        k(  206) = (  -0.3333333  -0.2500000   0.0000000), wk =   0.0069444
        k(  207) = (   0.5833333  -0.3333333   0.0000000), wk =   0.0069444
        k(  208) = (  -0.3333333  -0.2500000  -0.1250000), wk =   0.0138889
        k(  209) = (   0.5833333  -0.3333333  -0.1250000), wk =   0.0138889
        k(  210) = (  -0.3333333  -0.2500000  -0.2500000), wk =   0.0138889
        k(  211) = (   0.5833333  -0.3333333  -0.2500000), wk =   0.0138889
        k(  212) = (  -0.3333333  -0.2500000  -0.3750000), wk =   0.0138889
        k(  213) = (   0.5833333  -0.3333333  -0.3750000), wk =   0.0138889
        k(  214) = (  -0.3333333  -0.2500000   0.5000000), wk =   0.0069444
        k(  215) = (   0.5833333  -0.3333333   0.5000000), wk =   0.0069444

     Dense  grid:    28739 G-vectors     FFT dimensions: (  27,  27,  90)

     Smooth grid:    10167 G-vectors     FFT dimensions: (  20,  20,  64)

     Dynamical RAM for                 wfc:       0.23 MB

     Dynamical RAM for     wfc (w. buffer):      50.19 MB

     Dynamical RAM for           str. fact:       0.44 MB

     Dynamical RAM for           local pot:       0.00 MB

     Dynamical RAM for          nlocal pot:       0.62 MB

     Dynamical RAM for                qrad:       0.41 MB

     Dynamical RAM for          rho,v,vnew:       2.82 MB

     Dynamical RAM for               rhoin:       0.94 MB

     Dynamical RAM for            rho*nmix:       7.02 MB

     Dynamical RAM for           G-vectors:       1.72 MB

     Dynamical RAM for          h,s,v(r/c):       0.03 MB

     Dynamical RAM for          <psi|beta>:       0.01 MB

     Dynamical RAM for                 psi:       0.46 MB

     Dynamical RAM for                hpsi:       0.46 MB

     Dynamical RAM for                spsi:       0.46 MB

     Dynamical RAM for      wfcinit/wfcrot:       0.63 MB

     Dynamical RAM for           addusdens:      20.61 MB

     Dynamical RAM for          addusforce:      23.46 MB

     Dynamical RAM for         addusstress:      21.93 MB

     Estimated static dynamical RAM per process >      67.53 MB

     Estimated max dynamical RAM per process >      91.00 MB

     Check: negative core charge=   -0.000011

     Initial potential from superposition of free atoms

     starting charge   15.99983, renormalised to   16.00000
     Starting wfcs are   16 randomized atomic wfcs

     total cpu time spent up to now is        5.9 secs

     Self-consistent Calculation

     iteration #  1     ecut=    40.00 Ry     beta= 0.70
     Davidson diagonalization with overlap
     ethr =  1.00E-02,  avg # of iterations =  2.8

     total cpu time spent up to now is       18.1 secs

     total energy              =     -49.66099302 Ry
     estimated scf accuracy    <       0.37742104 Ry

     iteration #  2     ecut=    40.00 Ry     beta= 0.70
     Davidson diagonalization with overlap
     ethr =  2.36E-03,  avg # of iterations =  2.5

     total cpu time spent up to now is       28.1 secs

     total energy              =     -49.71235697 Ry
     estimated scf accuracy    <       0.00439397 Ry

     iteration #  3     ecut=    40.00 Ry     beta= 0.70
     Davidson diagonalization with overlap
     ethr =  2.75E-05,  avg # of iterations =  6.9

     total cpu time spent up to now is       42.0 secs

     total energy              =     -49.71271277 Ry
     estimated scf accuracy    <       0.00031438 Ry

     iteration #  4     ecut=    40.00 Ry     beta= 0.70
     Davidson diagonalization with overlap
     c_bands:  1 eigenvalues not converged
     c_bands:  1 eigenvalues not converged
     ethr =  1.96E-06,  avg # of iterations =  3.8

     total cpu time spent up to now is       52.0 secs

     total energy              =     -49.71273020 Ry
     estimated scf accuracy    <       0.00000190 Ry

     iteration #  5     ecut=    40.00 Ry     beta= 0.70
     Davidson diagonalization with overlap
     ethr =  1.18E-08,  avg # of iterations =  3.0

     total cpu time spent up to now is       63.1 secs

     total energy              =     -49.71273134 Ry
     estimated scf accuracy    <       0.00000008 Ry

     iteration #  6     ecut=    40.00 Ry     beta= 0.70
     Davidson diagonalization with overlap
     ethr =  4.69E-10,  avg # of iterations =  2.1

     total cpu time spent up to now is       73.3 secs

     total energy              =     -49.71273136 Ry
     estimated scf accuracy    <       0.00000002 Ry

     iteration #  7     ecut=    40.00 Ry     beta= 0.70
     Davidson diagonalization with overlap
     ethr =  1.36E-10,  avg # of iterations =  1.4

     total cpu time spent up to now is       83.6 secs

     End of self-consistent calculation

          k = 0.0000 0.0000 0.0000 (  1291 PWs)   bands (ev):

   -14.7003 -14.6548  -3.0619  -2.4983   1.7291   1.7306   1.7333   1.7349
     7.9713  11.4911  13.0941  13.0999

     occupation numbers 
     1.0000   1.0000   1.0000   1.0000   1.0000   1.0000   1.0000   1.0000
    -0.0000  -0.0000  -0.0000  -0.0000

          k = 0.0000 0.0000 0.0371 (  1285 PWs)   bands (ev):

   -14.6986 -14.6565  -3.0421  -2.5219   1.7293   1.7302   1.7336   1.7345
     8.0635  11.2445  13.0955  13.0995

     occupation numbers 
     1.0000   1.0000   1.0000   1.0000   1.0000   1.0000   1.0000   1.0000
    -0.0000  -0.0000  -0.0000  -0.0000

          k = 0.0000 0.0000 0.0741 (  1292 PWs)   bands (ev):

   -14.6938 -14.6615  -2.9855  -2.5881   1.7294   1.7300   1.7336   1.7343
     8.3339  10.6654  13.0959  13.1004

     occupation numbers 
     1.0000   1.0000   1.0000   1.0000   1.0000   1.0000   1.0000   1.0000
    -0.0000  -0.0000  -0.0000  -0.0000

          k = 0.0000 0.0000 0.1112 (  1268 PWs)   bands (ev):

   -14.6863 -14.6689  -2.8989  -2.6836   1.7297   1.7303   1.7340   1.7346
     8.7651   9.9840  13.0967  13.1009

     occupation numbers 
     1.0000   1.0000   1.0000   1.0000   1.0000   1.0000   1.0000   1.0000
    -0.0000  -0.0000  -0.0000  -0.0000

          k = 0.0000 0.0000-0.1483 (  1268 PWs)   bands (ev):

   -14.6776 -14.6776  -2.7932  -2.7932   1.7300   1.7300   1.7343   1.7343
     9.3285   9.3285  13.0971  13.1023

     occupation numbers 
     1.0000   1.0000   1.0000   1.0000   1.0000   1.0000   1.0000   1.0000
    -0.0000  -0.0000  -0.0000  -0.0000

          k = 0.0000 0.0962 0.0000 (  1268 PWs)   bands (ev):

   -14.5368 -14.4918  -2.8644  -2.3055   1.0803   1.0835   1.3962   1.3986
     8.1838  11.6859  13.1520  13.1767

     occupation numbers 
     1.0000   1.0000   1.0000   1.0000   1.0000   1.0000   1.0000   1.0000
    -0.0000  -0.0000  -0.0000  -0.0000

          k = 0.0000 0.0962 0.0371 (  1276 PWs)   bands (ev):

   -14.5351 -14.4936  -2.8450  -2.3289   1.0803   1.0833   1.3964   1.3983
     8.2755  11.4398  13.1564  13.1762

     occupation numbers 
     1.0000   1.0000   1.0000   1.0000   1.0000   1.0000   1.0000   1.0000
    -0.0000  -0.0000  -0.0000  -0.0000

          k = 0.0000 0.0962 0.0741 (  1283 PWs)   bands (ev):

   -14.5303 -14.4985  -2.7888  -2.3945   1.0803   1.0829   1.3966   1.3980
     8.5445  10.8634  13.1625  13.1749

     occupation numbers 
     1.0000   1.0000   1.0000   1.0000   1.0000   1.0000   1.0000   1.0000
    -0.0000  -0.0000  -0.0000  -0.0000

          k = 0.0000 0.0962 0.1112 (  1278 PWs)   bands (ev):

   -14.5230 -14.5058  -2.7027  -2.4895   1.0812   1.0822   1.3966   1.3976
     8.9733  10.1859  13.1670  13.1731

     occupation numbers 
     1.0000   1.0000   1.0000   1.0000   1.0000   1.0000   1.0000   1.0000
    -0.0000  -0.0000  -0.0000  -0.0000

          k = 0.0000 0.0962-0.1483 (  1278 PWs)   bands (ev):

   -14.5144 -14.5144  -2.5980  -2.5980   1.0817   1.0817   1.3970   1.3970
     9.5339   9.5339  13.1704  13.1704

     occupation numbers 
     1.0000   1.0000   1.0000   1.0000   1.0000   1.0000   1.0000   1.0000
    -0.0000  -0.0000  -0.0000  -0.0000

          k = 0.0000 0.1925 0.0000 (  1276 PWs)   bands (ev):

   -14.0480 -14.0049  -2.2772  -1.7331  -0.5532  -0.5468   0.6057   0.6103
     8.8217  12.2532  13.0755  13.1303

     occupation numbers 
     1.0000   1.0000   1.0000   1.0000   1.0000   1.0000   1.0000   1.0000
    -0.0000  -0.0000  -0.0000  -0.0000

          k = 0.0000 0.1925 0.0371 (  1281 PWs)   bands (ev):

   -14.0463 -14.0066  -2.2581  -1.7557  -0.5531  -0.5470   0.6059   0.6099
     8.9118  12.0114  13.0870  13.1296

     occupation numbers 
     1.0000   1.0000   1.0000   1.0000   1.0000   1.0000   1.0000   1.0000
    -0.0000  -0.0000  -0.0000  -0.0000

          k = 0.0000 0.1925 0.0741 (  1274 PWs)   bands (ev):

   -14.0418 -14.0113  -2.2033  -1.8195  -0.5522  -0.5477   0.6065   0.6095
     9.1761  11.4487  13.1013  13.1275

     occupation numbers 
     1.0000   1.0000   1.0000   1.0000   1.0000   1.0000   1.0000   1.0000
    -0.0000  -0.0000  -0.0000  -0.0000

          k = 0.0000 0.1925 0.1112 (  1262 PWs)   bands (ev):

   -14.0347 -14.0182  -2.1193  -1.9118  -0.5511  -0.5485   0.6074   0.6089
     9.5972  10.7864  13.1110  13.1233

     occupation numbers 
     1.0000   1.0000   1.0000   1.0000   1.0000   1.0000   1.0000   1.0000
    -0.0000  -0.0000  -0.0000  -0.0000

          k = 0.0000 0.1925-0.1483 (  1260 PWs)   bands (ev):

   -14.0265 -14.0265  -2.0174  -2.0174  -0.5498  -0.5498   0.6082   0.6082
    10.1474  10.1474  13.1179  13.1179

     occupation numbers 
     1.0000   1.0000   1.0000   1.0000   1.0000   1.0000   1.0000   1.0000
    -0.0000  -0.0000  -0.0000  -0.0000

          k = 0.0000 0.2887 0.0000 (  1270 PWs)   bands (ev):

   -13.2398 -13.1996  -2.6461  -2.6344  -1.3178  -0.8013  -0.2713  -0.2661
     9.8821  11.9194  12.0388  12.7882

     occupation numbers 
     1.0000   1.0000   1.0000   1.0000   1.0000   1.0000   1.0000   1.0000
    -0.0000  -0.0000  -0.0000  -0.0000

          k = 0.0000 0.2887 0.0371 (  1269 PWs)   bands (ev):

   -13.2383 -13.2011  -2.6457  -2.6349  -1.2996  -0.8228  -0.2711  -0.2663
     9.9680  11.9193  12.0285  12.7687

     occupation numbers 
     1.0000   1.0000   1.0000   1.0000   1.0000   1.0000   1.0000   1.0000
    -0.0000  -0.0000  -0.0000  -0.0000

          k = 0.0000 0.2887 0.0741 (  1268 PWs)   bands (ev):

   -13.2340 -13.2055  -2.6443  -2.6362  -1.2474  -0.8830  -0.2705  -0.2671
    10.2191  11.8855  12.0077  12.5415

     occupation numbers 
     1.0000   1.0000   1.0000   1.0000   1.0000   1.0000   1.0000   1.0000
    -0.0000  -0.0000  -0.0000  -0.0000

          k = 0.0000 0.2887 0.1112 (  1268 PWs)   bands (ev):

   -13.2274 -13.2121  -2.6425  -2.6380  -1.1677  -0.9706  -0.2698  -0.2680
    10.6155  11.6286  12.0206  12.1925

     occupation numbers 
     1.0000   1.0000   1.0000   1.0000   1.0000   1.0000   1.0000   1.0000
    -0.0000  -0.0000  -0.0000  -0.0000

          k = 0.0000 0.2887-0.1483 (  1268 PWs)   bands (ev):

   -13.2198 -13.2198  -2.6402  -2.6402  -1.0708  -1.0708  -0.2689  -0.2689
    11.1184  11.1184  12.0701  12.0702

     occupation numbers 
     1.0000   1.0000   1.0000   1.0000   1.0000   1.0000   1.0000   1.0000
    -0.0000  -0.0000  -0.0000  -0.0000

          k = 0.0000 0.3849 0.0000 (  1268 PWs)   bands (ev):

   -12.1244 -12.0880  -4.8431  -4.8263  -1.0026  -0.9975  -0.0331   0.4353
     9.5919   9.8075  11.3486  12.4543

     occupation numbers 
     1.0000   1.0000   1.0000   1.0000   1.0000   1.0000   1.0000   1.0000
    -0.0000  -0.0000  -0.0000  -0.0000

          k = 0.0000 0.3849 0.0371 (  1270 PWs)   bands (ev):

   -12.1230 -12.0894  -4.8425  -4.8271  -1.0024  -0.9978  -0.0164   0.4159
     9.5970   9.7971  11.4350  12.4547

     occupation numbers 
     1.0000   1.0000   1.0000   1.0000   1.0000   1.0000   1.0000   1.0000
    -0.0000  -0.0000  -0.0000  -0.0000

          k = 0.0000 0.3849 0.0741 (  1272 PWs)   bands (ev):

   -12.1191 -12.0934  -4.8407  -4.8291  -1.0017  -0.9981   0.0311   0.3617
     9.6141   9.7679  11.6830  12.4542

     occupation numbers 
     1.0000   1.0000   1.0000   1.0000   1.0000   1.0000   1.0000   1.0000
    -0.0000  -0.0000  -0.0000  -0.0000

          k = 0.0000 0.3849 0.1112 (  1265 PWs)   bands (ev):

   -12.1132 -12.0993  -4.8380  -4.8316  -1.0009  -0.9988   0.1038   0.2826
     9.6438   9.7275  12.0531  12.4436

     occupation numbers 
     1.0000   1.0000   1.0000   1.0000   1.0000   1.0000   1.0000   1.0000
    -0.0000  -0.0000  -0.0000  -0.0000

          k = 0.0000 0.3849-0.1483 (  1260 PWs)   bands (ev):

   -12.1063 -12.1063  -4.8348  -4.8348  -0.9997  -0.9997   0.1919   0.1919
     9.6837   9.6837  12.3714  12.3714

     occupation numbers 
     1.0000   1.0000   1.0000   1.0000   1.0000   1.0000   1.0000   1.0000
    -0.0000  -0.0000  -0.0000  -0.0000

          k = 0.0000 0.4811 0.0000 (  1280 PWs)   bands (ev):

   -10.7330 -10.7016  -6.9365  -6.9157  -1.4745  -1.4690   1.4286   1.7965
     7.4413   7.7142  12.2037  12.2610

     occupation numbers 
     1.0000   1.0000   1.0000   1.0000   1.0000   1.0000   1.0000   1.0000
    -0.0000  -0.0000  -0.0000  -0.0000

          k = 0.0000 0.4811 0.0371 (  1282 PWs)   bands (ev):

   -10.7318 -10.7028  -6.9358  -6.9164  -1.4743  -1.4694   1.4419   1.7819
     7.4498   7.7017  12.2063  12.2594

     occupation numbers 
     1.0000   1.0000   1.0000   1.0000   1.0000   1.0000   1.0000   1.0000
    -0.0000  -0.0000  -0.0000  -0.0000

          k = 0.0000 0.4811 0.0741 (  1269 PWs)   bands (ev):

   -10.7284 -10.7062  -6.9334  -6.9186  -1.4732  -1.4698   1.4802   1.7407
     7.4749   7.6677  12.2136  12.2544

     occupation numbers 
     1.0000   1.0000   1.0000   1.0000   1.0000   1.0000   1.0000   1.0000
    -0.0000  -0.0000  -0.0000  -0.0000

          k = 0.0000 0.4811 0.1112 (  1273 PWs)   bands (ev):

   -10.7233 -10.7113  -6.9300  -6.9220  -1.4724  -1.4707   1.5383   1.6792
     7.5143   7.6187  12.2239  12.2460

     occupation numbers 
     1.0000   1.0000   1.0000   1.0000   1.0000   1.0000   1.0000   1.0000
    -0.0000  -0.0000  -0.0000  -0.0000

          k = 0.0000 0.4811-0.1483 (  1276 PWs)   bands (ev):

   -10.7174 -10.7174  -6.9260  -6.9260  -1.4716  -1.4716   1.6080   1.6080
     7.5646   7.5646  12.2352  12.2352

     occupation numbers 
     1.0000   1.0000   1.0000   1.0000   1.0000   1.0000   1.0000   1.0000
    -0.0000  -0.0000  -0.0000  -0.0000

          k = 0.0000-0.5774 0.0000 (  1276 PWs)   bands (ev):

    -9.4715  -9.4565  -8.4273  -8.4152  -1.6357  -1.6313   2.3588   2.5316
     6.3746   6.6124  12.1216  12.1874

     occupation numbers 
     1.0000   1.0000   1.0000   1.0000   1.0000   1.0000   1.0000   1.0000
    -0.0000  -0.0000  -0.0000  -0.0000

          k = 0.0000-0.5774 0.0371 (  1274 PWs)   bands (ev):

    -9.4709  -9.4571  -8.4267  -8.4157  -1.6360  -1.6313   2.3656   2.5256
     6.3806   6.6008  12.1240  12.1849

     occupation numbers 
     1.0000   1.0000   1.0000   1.0000   1.0000   1.0000   1.0000   1.0000
    -0.0000  -0.0000  -0.0000  -0.0000

          k = 0.0000-0.5774 0.0741 (  1264 PWs)   bands (ev):

    -9.4692  -9.4586  -8.4255  -8.4170  -1.6353  -1.6318   2.3855   2.5083
     6.3996   6.5679  12.1311  12.1777

     occupation numbers 
     1.0000   1.0000   1.0000   1.0000   1.0000   1.0000   1.0000   1.0000
    -0.0000  -0.0000  -0.0000  -0.0000

          k = 0.0000-0.5774 0.1112 (  1268 PWs)   bands (ev):

    -9.4668  -9.4610  -8.4236  -8.4190  -1.6344  -1.6327   2.4146   2.4812
     6.4310   6.5219  12.1418  12.1670

     occupation numbers 
     1.0000   1.0000   1.0000   1.0000   1.0000   1.0000   1.0000   1.0000
    -0.0000  -0.0000  -0.0000  -0.0000

          k = 0.0000-0.5774-0.1483 (  1260 PWs)   bands (ev):

    -9.4638  -9.4638  -8.4212  -8.4212  -1.6335  -1.6335   2.4485   2.4485
     6.4738   6.4738  12.1544  12.1544

     occupation numbers 
     1.0000   1.0000   1.0000   1.0000   1.0000   1.0000   1.0000   1.0000
    -0.0000  -0.0000  -0.0000  -0.0000

          k = 0.0833 0.1443 0.0000 (  1281 PWs)   bands (ev):

   -14.2106 -14.1670  -2.4720  -1.9229   0.0501   0.0534   0.7213   0.7236
     8.6095  12.0703  13.4297  13.4801

     occupation numbers 
     1.0000   1.0000   1.0000   1.0000   1.0000   1.0000   1.0000   1.0000
    -0.0000  -0.0000  -0.0000  -0.0000

          k = 0.0833 0.1443 0.0371 (  1274 PWs)   bands (ev):

   -14.2090 -14.1686  -2.4528  -1.9457   0.0502   0.0533   0.7215   0.7237
     8.7002  11.8269  13.4396  13.4794

     occupation numbers 
     1.0000   1.0000   1.0000   1.0000   1.0000   1.0000   1.0000   1.0000
    -0.0000  -0.0000  -0.0000  -0.0000

          k = 0.0833 0.1443 0.0741 (  1272 PWs)   bands (ev):

   -14.2042 -14.1734  -2.3974  -2.0099   0.0506   0.0529   0.7216   0.7231
     8.9663  11.2578  13.4536  13.4772

     occupation numbers 
     1.0000   1.0000   1.0000   1.0000   1.0000   1.0000   1.0000   1.0000
    -0.0000  -0.0000  -0.0000  -0.0000

          k = 0.0833 0.1443 0.1112 (  1271 PWs)   bands (ev):

   -14.1972 -14.1805  -2.3129  -2.1035   0.0512   0.0524   0.7220   0.7227
     9.3902  10.5887  13.4629  13.4738

     occupation numbers 
     1.0000   1.0000   1.0000   1.0000   1.0000   1.0000   1.0000   1.0000
    -0.0000  -0.0000  -0.0000  -0.0000

          k = 0.0833 0.1443-0.1483 (  1270 PWs)   bands (ev):

   -14.1889 -14.1889  -2.2100  -2.2100   0.0519   0.0519   0.7224   0.7224
     9.9445   9.9445  13.4692  13.4692

     occupation numbers 
     1.0000   1.0000   1.0000   1.0000   1.0000   1.0000   1.0000   1.0000
    -0.0000  -0.0000  -0.0000  -0.0000

          k = 0.0833 0.2406 0.0000 (  1271 PWs)   bands (ev):

   -13.5621 -13.5208  -1.6975  -1.6561  -1.6488  -1.1693  -0.2730  -0.2688
     9.4605  12.7002  12.8153  13.0111

     occupation numbers 
     1.0000   1.0000   1.0000   1.0000   1.0000   1.0000   1.0000   1.0000
    -0.0000  -0.0000  -0.0000  -0.0000

          k = 0.0833 0.2406 0.0371 (  1273 PWs)   bands (ev):

   -13.5606 -13.5224  -1.6791  -1.6559  -1.6491  -1.1914  -0.2729  -0.2689
     9.5487  12.5291  12.8126  12.9468

     occupation numbers 
     1.0000   1.0000   1.0000   1.0000   1.0000   1.0000   1.0000   1.0000
    -0.0000  -0.0000  -0.0000  -0.0000

          k = 0.0833 0.2406 0.0741 (  1270 PWs)   bands (ev):

   -13.5561 -13.5269  -1.6550  -1.6499  -1.6257  -1.2530  -0.2723  -0.2694
     9.8077  12.0169  12.8199  12.9018

     occupation numbers 
     1.0000   1.0000   1.0000   1.0000   1.0000   1.0000   1.0000   1.0000
    -0.0000  -0.0000  -0.0000  -0.0000

          k = 0.0833 0.2406 0.1112 (  1273 PWs)   bands (ev):

   -13.5495 -13.5337  -1.6540  -1.6512  -1.5442  -1.3428  -0.2715  -0.2700
    10.2198  11.3795  12.8348  12.8763

     occupation numbers 
     1.0000   1.0000   1.0000   1.0000   1.0000   1.0000   1.0000   1.0000
    -0.0000  -0.0000  -0.0000  -0.0000

          k = 0.0833 0.2406-0.1483 (  1274 PWs)   bands (ev):

   -13.5416 -13.5416  -1.6526  -1.6526  -1.4452  -1.4452  -0.2708  -0.2708
    10.7576  10.7576  12.8544  12.8545

     occupation numbers 
     1.0000   1.0000   1.0000   1.0000   1.0000   1.0000   1.0000   1.0000
    -0.0000  -0.0000  -0.0000  -0.0000

          k = 0.0833 0.3368 0.0000 (  1267 PWs)   bands (ev):

   -12.6002 -12.5622  -3.7239  -3.7102  -1.1573  -1.1513  -0.5697  -0.0780
    10.6324  10.7301  10.7839  13.3103

     occupation numbers 
     1.0000   1.0000   1.0000   1.0000   1.0000   1.0000   1.0000   1.0000
    -0.0000  -0.0000  -0.0000  -0.0000

          k = 0.0833 0.3368 0.0371 (  1266 PWs)   bands (ev):

   -12.5987 -12.5636  -3.7234  -3.7108  -1.1570  -1.1516  -0.5524  -0.0983
    10.6229  10.7672  10.8401  13.2984

     occupation numbers 
     1.0000   1.0000   1.0000   1.0000   1.0000   1.0000   1.0000   1.0000
    -0.0000  -0.0000  -0.0000  -0.0000

          k = 0.0833 0.3368 0.0741 (  1268 PWs)   bands (ev):

   -12.5946 -12.5678  -3.7219  -3.7124  -1.1563  -1.1521  -0.5026  -0.1555
    10.6299  10.7502  11.0962  13.1318

     occupation numbers 
     1.0000   1.0000   1.0000   1.0000   1.0000   1.0000   1.0000   1.0000
    -0.0000  -0.0000  -0.0000  -0.0000

          k = 0.0833 0.3368 0.1112 (  1268 PWs)   bands (ev):

   -12.5886 -12.5740  -3.7198  -3.7146  -1.1554  -1.1530  -0.4265  -0.2389
    10.6540  10.7209  11.4935  12.5877

     occupation numbers 
     1.0000   1.0000   1.0000   1.0000   1.0000   1.0000   1.0000   1.0000
    -0.0000  -0.0000  -0.0000  -0.0000

          k = 0.0833 0.3368-0.1483 (  1268 PWs)   bands (ev):

   -12.5813 -12.5813  -3.7172  -3.7172  -1.1542  -1.1542  -0.3341  -0.3341
    10.6866  10.6866  12.0053  12.0053

     occupation numbers 
     1.0000   1.0000   1.0000   1.0000   1.0000   1.0000   1.0000   1.0000
    -0.0000  -0.0000  -0.0000  -0.0000

          k = 0.0833 0.4330 0.0000 (  1275 PWs)   bands (ev):

   -11.3437 -11.3099  -5.8403  -5.8222  -1.7910  -1.7839   0.8339   1.2593
     8.3987   8.6306  12.3881  13.0282

     occupation numbers 
     1.0000   1.0000   1.0000   1.0000   1.0000   1.0000   1.0000   1.0000
    -0.0000  -0.0000  -0.0000  -0.0000

          k = 0.0833 0.4330 0.0371 (  1272 PWs)   bands (ev):

   -11.3424 -11.3112  -5.8396  -5.8228  -1.7906  -1.7842   0.8490   1.2422
     8.4062   8.6203  12.4647  13.0299

     occupation numbers 
     1.0000   1.0000   1.0000   1.0000   1.0000   1.0000   1.0000   1.0000
    -0.0000  -0.0000  -0.0000  -0.0000

          k = 0.0833 0.4330 0.0741 (  1270 PWs)   bands (ev):

   -11.3387 -11.3149  -5.8376  -5.8246  -1.7898  -1.7849   0.8926   1.1934
     8.4281   8.5920  12.6789  13.0339

     occupation numbers 
     1.0000   1.0000   1.0000   1.0000   1.0000   1.0000   1.0000   1.0000
    -0.0000  -0.0000  -0.0000  -0.0000

          k = 0.0833 0.4330 0.1112 (  1277 PWs)   bands (ev):

   -11.3333 -11.3205  -5.8346  -5.8277  -1.7889  -1.7861   0.9590   1.1217
     8.4623   8.5511  12.9309  13.0350

     occupation numbers 
     1.0000   1.0000   1.0000   1.0000   1.0000   1.0000   1.0000   1.0000
    -0.0000  -0.0000  -0.0000  -0.0000

          k = 0.0833 0.4330-0.1483 (  1272 PWs)   bands (ev):

   -11.3269 -11.3269  -5.8312  -5.8312  -1.7874  -1.7874   1.0393   1.0393
     8.5054   8.5054  13.0198  13.0199

     occupation numbers 
     1.0000   1.0000   1.0000   1.0000   1.0000   1.0000   1.0000   1.0000
    -0.0000  -0.0000  -0.0000  -0.0000

          k = 0.0833 0.5292 0.0000 (  1272 PWs)   bands (ev):

    -9.8692  -9.8422  -7.7733  -7.7522  -2.1186  -2.1115   2.2094   2.4756
     6.6430   6.8823  12.8516  12.9264

     occupation numbers 
     1.0000   1.0000   1.0000   1.0000   1.0000   1.0000   1.0000   1.0000
    -0.0000  -0.0000  -0.0000  -0.0000

          k = 0.0833 0.5292 0.0371 (  1269 PWs)   bands (ev):

    -9.8681  -9.8432  -7.7725  -7.7530  -2.1184  -2.1117   2.2196   2.4656
     6.6499   6.8711  12.8545  12.9237

     occupation numbers 
     1.0000   1.0000   1.0000   1.0000   1.0000   1.0000   1.0000   1.0000
    -0.0000  -0.0000  -0.0000  -0.0000

          k = 0.0833 0.5292 0.0741 (  1270 PWs)   bands (ev):

    -9.8652  -9.8461  -7.7703  -7.7553  -2.1176  -2.1124   2.2483   2.4367
     6.6705   6.8398  12.8626  12.9156

     occupation numbers 
     1.0000   1.0000   1.0000   1.0000   1.0000   1.0000   1.0000   1.0000
    -0.0000  -0.0000  -0.0000  -0.0000

          k = 0.0833 0.5292 0.1112 (  1267 PWs)   bands (ev):

    -9.8608  -9.8505  -7.7668  -7.7587  -2.1164  -2.1137   2.2914   2.3936
     6.7041   6.7957  12.8749  12.9034

     occupation numbers 
     1.0000   1.0000   1.0000   1.0000   1.0000   1.0000   1.0000   1.0000
    -0.0000  -0.0000  -0.0000  -0.0000

          k = 0.0833 0.5292-0.1483 (  1268 PWs)   bands (ev):

    -9.8556  -9.8556  -7.7628  -7.7628  -2.1150  -2.1150   2.3424   2.3424
     6.7478   6.7478  12.8892  12.8892

     occupation numbers 
     1.0000   1.0000   1.0000   1.0000   1.0000   1.0000   1.0000   1.0000
    -0.0000  -0.0000  -0.0000  -0.0000

          k = 0.1667 0.2887 0.0000 (  1269 PWs)   bands (ev):

   -12.7599 -12.7213  -2.9826  -2.9763  -1.6280  -1.6234  -0.7512  -0.2521
    10.5224  11.0971  11.1974  13.6822

     occupation numbers 
     1.0000   1.0000   1.0000   1.0000   1.0000   1.0000   1.0000   1.0000
    -0.0000  -0.0000  -0.0000  -0.0000

          k = 0.1667 0.2887 0.0371 (  1263 PWs)   bands (ev):

   -12.7583 -12.7228  -2.9822  -2.9765  -1.6278  -1.6236  -0.7336  -0.2726
    10.6071  11.1009  11.1937  13.4696

     occupation numbers 
     1.0000   1.0000   1.0000   1.0000   1.0000   1.0000   1.0000   1.0000
    -0.0000  -0.0000  -0.0000  -0.0000

          k = 0.1667 0.2887 0.0741 (  1268 PWs)   bands (ev):

   -12.7542 -12.7270  -2.9816  -2.9772  -1.6274  -1.6241  -0.6831  -0.3308
    10.8552  11.1116  11.1827  12.9640

     occupation numbers 
     1.0000   1.0000   1.0000   1.0000   1.0000   1.0000   1.0000   1.0000
    -0.0000  -0.0000  -0.0000  -0.0000

          k = 0.1667 0.2887 0.1112 (  1272 PWs)   bands (ev):

   -12.7480 -12.7333  -2.9806  -2.9782  -1.6268  -1.6251  -0.6059  -0.4154
    11.1280  11.1651  11.2518  12.3574

     occupation numbers 
     1.0000   1.0000   1.0000   1.0000   1.0000   1.0000   1.0000   1.0000
    -0.0000  -0.0000  -0.0000  -0.0000

          k = 0.1667 0.2887-0.1483 (  1278 PWs)   bands (ev):

   -12.7407 -12.7407  -2.9795  -2.9795  -1.6259  -1.6259  -0.5123  -0.5123
    11.1467  11.1467  11.7648  11.7648

     occupation numbers 
     1.0000   1.0000   1.0000   1.0000   1.0000   1.0000   1.0000   1.0000
    -0.0000  -0.0000  -0.0000  -0.0000

          k = 0.1667 0.3849 0.0000 (  1271 PWs)   bands (ev):

   -11.6553 -11.6206  -4.7064  -4.6935  -2.6822  -2.6741   0.5184   0.9696
     9.1409   9.2843  11.9941  14.7539

     occupation numbers 
     1.0000   1.0000   1.0000   1.0000   1.0000   1.0000   1.0000   1.0000
    -0.0000  -0.0000  -0.0000  -0.0000

          k = 0.1667 0.3849 0.0371 (  1270 PWs)   bands (ev):

   -11.6540 -11.6219  -4.7058  -4.6940  -2.6819  -2.6744   0.5344   0.9510
     9.1462   9.2788  12.0723  14.5759

     occupation numbers 
     1.0000   1.0000   1.0000   1.0000   1.0000   1.0000   1.0000   1.0000
    -0.0000  -0.0000  -0.0000  -0.0000

          k = 0.1667 0.3849 0.0741 (  1272 PWs)   bands (ev):

   -11.6503 -11.6257  -4.7045  -4.6956  -2.6810  -2.6752   0.5804   0.8988
     9.1608   9.2626  12.3007  14.1632

     occupation numbers 
     1.0000   1.0000   1.0000   1.0000   1.0000   1.0000   1.0000   1.0000
    -0.0000  -0.0000  -0.0000  -0.0000

          k = 0.1667 0.3849 0.1112 (  1274 PWs)   bands (ev):

   -11.6447 -11.6314  -4.7024  -4.6976  -2.6797  -2.6765   0.6505   0.8227
     9.1834   9.2388  12.6612  13.6469

     occupation numbers 
     1.0000   1.0000   1.0000   1.0000   1.0000   1.0000   1.0000   1.0000
    -0.0000  -0.0000  -0.0000  -0.0000

          k = 0.1667 0.3849-0.1483 (  1274 PWs)   bands (ev):

   -11.6380 -11.6380  -4.7000  -4.7000  -2.6781  -2.6781   0.7353   0.7353
     9.2107   9.2107  13.1245  13.1245

     occupation numbers 
     1.0000   1.0000   1.0000   1.0000   1.0000   1.0000   1.0000   1.0000
    -0.0000  -0.0000  -0.0000  -0.0000

          k = 0.1667 0.4811 0.0000 (  1261 PWs)   bands (ev):

   -10.2839 -10.2539  -6.6107  -6.5920  -3.2581  -3.2477   1.9807   2.3398
     7.2176   7.4117  13.8411  14.7168

     occupation numbers 
     1.0000   1.0000   1.0000   1.0000   1.0000   1.0000   1.0000   1.0000
    -0.0000  -0.0000  -0.0000  -0.0000

          k = 0.1667 0.4811 0.0371 (  1268 PWs)   bands (ev):

   -10.2828 -10.2550  -6.6100  -6.5927  -3.2579  -3.2482   1.9938   2.3253
     7.2241   7.4035  13.9042  14.7188

     occupation numbers 
     1.0000   1.0000   1.0000   1.0000   1.0000   1.0000   1.0000   1.0000
    -0.0000  -0.0000  -0.0000  -0.0000

          k = 0.1667 0.4811 0.0741 (  1267 PWs)   bands (ev):

   -10.2796 -10.2583  -6.6079  -6.5947  -3.2567  -3.2494   2.0311   2.2847
     7.2432   7.3806  14.0852  14.7235

     occupation numbers 
     1.0000   1.0000   1.0000   1.0000   1.0000   1.0000   1.0000   1.0000
    -0.0000  -0.0000  -0.0000  -0.0000

          k = 0.1667 0.4811 0.1112 (  1272 PWs)   bands (ev):

   -10.2748 -10.2632  -6.6050  -6.5978  -3.2550  -3.2511   2.0877   2.2248
     7.2728   7.3470  14.3548  14.7178

     occupation numbers 
     1.0000   1.0000   1.0000   1.0000   1.0000   1.0000   1.0000   1.0000
    -0.0000  -0.0000  -0.0000  -0.0000

          k = 0.1667 0.4811-0.1483 (  1274 PWs)   bands (ev):

   -10.2690 -10.2690  -6.6013  -6.6013  -3.2531  -3.2531   2.1557   2.1557
     7.3090   7.3090  14.6255  14.6256

     occupation numbers 
     1.0000   1.0000   1.0000   1.0000   1.0000   1.0000   1.0000   1.0000
    -0.0000  -0.0000  -0.0000  -0.0000

          k = 0.1667 0.5774 0.0000 (  1260 PWs)   bands (ev):

    -9.0513  -9.0372  -8.0309  -8.0204  -3.4431  -3.4321   2.9559   3.1253
     6.1948   6.3257  14.6174  14.7569

     occupation numbers 
     1.0000   1.0000   1.0000   1.0000   1.0000   1.0000   1.0000   1.0000
    -0.0000  -0.0000  -0.0000  -0.0000

          k = 0.1667 0.5774 0.0371 (  1256 PWs)   bands (ev):

    -9.0507  -9.0377  -8.0305  -8.0208  -3.4427  -3.4323   2.9630   3.1194
     6.1976   6.3188  14.6222  14.7508

     occupation numbers 
     1.0000   1.0000   1.0000   1.0000   1.0000   1.0000   1.0000   1.0000
    -0.0000  -0.0000  -0.0000  -0.0000

          k = 0.1667 0.5774 0.0741 (  1258 PWs)   bands (ev):

    -9.0491  -9.0392  -8.0294  -8.0220  -3.4415  -3.4336   2.9825   3.1025
     6.2071   6.3000  14.6356  14.7336

     occupation numbers 
     1.0000   1.0000   1.0000   1.0000   1.0000   1.0000   1.0000   1.0000
    -0.0000  -0.0000  -0.0000  -0.0000

          k = 0.1667 0.5774 0.1112 (  1265 PWs)   bands (ev):

    -9.0468  -9.0414  -8.0278  -8.0238  -3.4398  -3.4355   3.0111   3.0760
     6.2236   6.2739  14.6560  14.7089

     occupation numbers 
     1.0000   1.0000   1.0000   1.0000   1.0000   1.0000   1.0000   1.0000
    -0.0000  -0.0000  -0.0000  -0.0000

          k = 0.1667 0.5774-0.1483 (  1260 PWs)   bands (ev):

    -9.0441  -9.0441  -8.0258  -8.0258  -3.4376  -3.4376   3.0441   3.0441
     6.2467   6.2467  14.6817  14.6817

     occupation numbers 
     1.0000   1.0000   1.0000   1.0000   1.0000   1.0000   1.0000   1.0000
    -0.0000  -0.0000  -0.0000  -0.0000

          k = 0.2500 0.4330 0.0000 (  1267 PWs)   bands (ev):

   -10.4310 -10.4003  -5.7386  -5.7294  -4.1559  -4.1489   1.8842   2.2719
     7.5374   7.6738  13.6414  15.3850

     occupation numbers 
     1.0000   1.0000   1.0000   1.0000   1.0000   1.0000   1.0000   1.0000
    -0.0000  -0.0000  -0.0000  -0.0000

          k = 0.2500 0.4330 0.0371 (  1266 PWs)   bands (ev):

   -10.4299 -10.4014  -5.7382  -5.7298  -4.1556  -4.1491   1.8981   2.2562
     7.5424   7.6685  13.7007  15.3027

     occupation numbers 
     1.0000   1.0000   1.0000   1.0000   1.0000   1.0000   1.0000   1.0000
    -0.0000  -0.0000  -0.0000  -0.0000

          k = 0.2500 0.4330 0.0741 (  1273 PWs)   bands (ev):

   -10.4267 -10.4049  -5.7372  -5.7307  -4.1549  -4.1499   1.9380   2.2116
     7.5570   7.6535  13.8711  15.0836

     occupation numbers 
     1.0000   1.0000   1.0000   1.0000   1.0000   1.0000   1.0000   1.0000
    -0.0000  -0.0000  -0.0000  -0.0000

          k = 0.2500 0.4330 0.1112 (  1269 PWs)   bands (ev):

   -10.4217 -10.4099  -5.7357  -5.7322  -4.1536  -4.1510   1.9986   2.1467
     7.5792   7.6311  14.1316  14.7818

     occupation numbers 
     1.0000   1.0000   1.0000   1.0000   1.0000   1.0000   1.0000   1.0000
    -0.0000  -0.0000  -0.0000  -0.0000

          k = 0.2500 0.4330-0.1483 (  1268 PWs)   bands (ev):

   -10.4158 -10.4158  -5.7339  -5.7339  -4.1523  -4.1523   2.0718   2.0718
     7.6051   7.6051  14.4490  14.4490

     occupation numbers 
     1.0000   1.0000   1.0000   1.0000   1.0000   1.0000   1.0000   1.0000
    -0.0000  -0.0000  -0.0000  -0.0000

          k = 0.2500 0.5292 0.0000 (  1255 PWs)   bands (ev):

    -9.0134  -8.9893  -7.1552  -7.1397  -4.8631  -4.8516   3.3199   3.5843
     6.0308   6.1613  15.5766  15.6369

     occupation numbers 
     1.0000   1.0000   1.0000   1.0000   1.0000   1.0000   1.0000   1.0001
    -0.0001  -0.0000  -0.0000  -0.0000

          k = 0.2500 0.5292 0.0371 (  1251 PWs)   bands (ev):

    -9.0125  -8.9902  -7.1546  -7.1402  -4.8627  -4.8521   3.3299   3.5742
     6.0353   6.1559  15.5088  15.5983

     occupation numbers 
     1.0000   1.0000   1.0000   1.0000   1.0000   1.0000   1.0000   1.0001
    -0.0001  -0.0000  -0.0000  -0.0000

          k = 0.2500 0.5292 0.0741 (  1253 PWs)   bands (ev):

    -9.0099  -8.9928  -7.1530  -7.1419  -4.8614  -4.8534   3.3585   3.5453
     6.0480   6.1404  15.4060  15.4984

     occupation numbers 
     1.0000   1.0000   1.0000   1.0000   1.0000   1.0000   1.0000   1.0001
    -0.0001  -0.0000  -0.0000  -0.0000

          k = 0.2500 0.5292 0.1112 (  1261 PWs)   bands (ev):

    -9.0060  -8.9968  -7.1505  -7.1445  -4.8597  -4.8553   3.4009   3.5020
     6.0676   6.1176  15.3435  15.3990

     occupation numbers 
     1.0000   1.0000   1.0000   1.0000   1.0000   1.0000   1.0000   1.0000
    -0.0001  -0.0000  -0.0000  -0.0000

          k = 0.2500 0.5292-0.1483 (  1262 PWs)   bands (ev):

    -9.0014  -9.0014  -7.1475  -7.1475  -4.8574  -4.8574   3.4513   3.4513
     6.0921   6.0921  15.3415  15.3415

     occupation numbers 
     1.0000   1.0000   1.0000   1.0000   1.0000   1.0000   1.0000   1.0000
    -0.0000  -0.0000  -0.0000  -0.0000

          k = 0.3333 0.5774 0.0000 (  1257 PWs)   bands (ev):

    -7.8036  -7.7913  -7.7912  -7.7795  -5.7439  -5.7439   4.6451   4.7996
     4.7997   4.9622  15.4983  15.4989

     occupation numbers 
     1.0000   1.0000   1.0000   1.0000   1.0000   1.0000   0.7988   0.5032
     0.5031   0.1931  -0.0000  -0.0000

          k = 0.3333 0.5774 0.0371 (  1248 PWs)   bands (ev):

    -7.8026  -7.7912  -7.7911  -7.7804  -5.7438  -5.7438   4.6568   4.8000
     4.8001   4.9497  15.4436  15.4442

     occupation numbers 
     1.0000   1.0000   1.0000   1.0000   1.0000   1.0000   0.7795   0.5023
     0.5021   0.2133  -0.0000  -0.0000

          k = 0.3333 0.5774 0.0741 (  1257 PWs)   bands (ev):

    -7.8001  -7.7913  -7.7912  -7.7830  -5.7440  -5.7440   4.6900   4.8008
     4.8009   4.9139  15.3302  15.3305

     occupation numbers 
     1.0000   1.0000   1.0000   1.0000   1.0000   1.0000   0.7213   0.5007
     0.5005   0.2757  -0.0000  -0.0000

          k = 0.3333 0.5774 0.1112 (  1272 PWs)   bands (ev):

    -7.7963  -7.7914  -7.7912  -7.7869  -5.7441  -5.7441   4.7396   4.8011
     4.8012   4.8608  15.2346  15.2348

     occupation numbers 
     1.0000   1.0000   1.0000   1.0000   1.0000   1.0000   0.6260   0.5000
     0.4998   0.3777  -0.0000  -0.0000

          k = 0.3333 0.5774-0.1483 (  1266 PWs)   bands (ev):

    -7.7922  -7.7922  -7.7907  -7.7907  -5.7441  -5.7441   4.7992   4.7992
     4.8018   4.8018  15.1989  15.1989

     occupation numbers 
     1.0000   1.0000   1.0000   1.0000   1.0000   1.0000   0.5040   0.5040
     0.4986   0.4986  -0.0000  -0.0000

          k =-0.0833-0.0481 0.0000 (  1268 PWs)   bands (ev):

   -14.5367 -14.4918  -2.8644  -2.3055   1.0831   1.0863   1.3933   1.3957
     8.1838  11.6859  13.1485  13.1732

     occupation numbers 
     1.0000   1.0000   1.0000   1.0000   1.0000   1.0000   1.0000   1.0000
    -0.0000  -0.0000  -0.0000  -0.0000

          k =-0.0833-0.0481-0.0371 (  1276 PWs)   bands (ev):

   -14.5351 -14.4936  -2.8450  -2.3289   1.0831   1.0861   1.3935   1.3954
     8.2755  11.4398  13.1529  13.1727

     occupation numbers 
     1.0000   1.0000   1.0000   1.0000   1.0000   1.0000   1.0000   1.0000
    -0.0000  -0.0000  -0.0000  -0.0000

          k =-0.0833-0.0481-0.0741 (  1283 PWs)   bands (ev):

   -14.5303 -14.4985  -2.7888  -2.3945   1.0831   1.0857   1.3937   1.3951
     8.5445  10.8634  13.1590  13.1714

     occupation numbers 
     1.0000   1.0000   1.0000   1.0000   1.0000   1.0000   1.0000   1.0000
    -0.0000  -0.0000  -0.0000  -0.0000

          k =-0.0833-0.0481-0.1112 (  1278 PWs)   bands (ev):

   -14.5230 -14.5058  -2.7027  -2.4896   1.0840   1.0851   1.3937   1.3947
     8.9733  10.1858  13.1636  13.1695

     occupation numbers 
     1.0000   1.0000   1.0000   1.0000   1.0000   1.0000   1.0000   1.0000
    -0.0000  -0.0000  -0.0000  -0.0000

          k =-0.0833-0.0481 0.1483 (  1278 PWs)   bands (ev):

   -14.5144 -14.5144  -2.5980  -2.5980   1.0845   1.0845   1.3941   1.3941
     9.5339   9.5339  13.1669  13.1669

     occupation numbers 
     1.0000   1.0000   1.0000   1.0000   1.0000   1.0000   1.0000   1.0000
    -0.0000  -0.0000  -0.0000  -0.0000

          k =-0.1667-0.0962 0.0000 (  1276 PWs)   bands (ev):

   -14.0480 -14.0049  -2.2772  -1.7332  -0.5511  -0.5446   0.6034   0.6079
     8.8217  12.2531  13.0734  13.1281

     occupation numbers 
     1.0000   1.0000   1.0000   1.0000   1.0000   1.0000   1.0000   1.0000
    -0.0000  -0.0000  -0.0000  -0.0000

          k =-0.1667-0.0962-0.0371 (  1281 PWs)   bands (ev):

   -14.0463 -14.0066  -2.2582  -1.7558  -0.5510  -0.5449   0.6035   0.6075
     8.9118  12.0113  13.0848  13.1273

     occupation numbers 
     1.0000   1.0000   1.0000   1.0000   1.0000   1.0000   1.0000   1.0000
    -0.0000  -0.0000  -0.0000  -0.0000

          k =-0.1667-0.0962-0.0741 (  1274 PWs)   bands (ev):

   -14.0417 -14.0113  -2.2033  -1.8195  -0.5501  -0.5455   0.6041   0.6071
     9.1761  11.4486  13.0991  13.1251

     occupation numbers 
     1.0000   1.0000   1.0000   1.0000   1.0000   1.0000   1.0000   1.0000
    -0.0000  -0.0000  -0.0000  -0.0000

          k =-0.1667-0.0962-0.1112 (  1262 PWs)   bands (ev):

   -14.0347 -14.0182  -2.1194  -1.9119  -0.5490  -0.5463   0.6050   0.6065
     9.5972  10.7863  13.1089  13.1212

     occupation numbers 
     1.0000   1.0000   1.0000   1.0000   1.0000   1.0000   1.0000   1.0000
    -0.0000  -0.0000  -0.0000  -0.0000

          k =-0.1667-0.0962 0.1483 (  1260 PWs)   bands (ev):

   -14.0265 -14.0265  -2.0175  -2.0175  -0.5476  -0.5476   0.6058   0.6058
    10.1474  10.1474  13.1157  13.1157

     occupation numbers 
     1.0000   1.0000   1.0000   1.0000   1.0000   1.0000   1.0000   1.0000
    -0.0000  -0.0000  -0.0000  -0.0000

          k =-0.2500-0.1443 0.0000 (  1270 PWs)   bands (ev):

   -13.2398 -13.1995  -2.6446  -2.6329  -1.3179  -0.8015  -0.2732  -0.2681
     9.8822  11.9201  12.0394  12.7842

     occupation numbers 
     1.0000   1.0000   1.0000   1.0000   1.0000   1.0000   1.0000   1.0000
    -0.0000  -0.0000  -0.0000  -0.0000

          k =-0.2500-0.1443-0.0371 (  1269 PWs)   bands (ev):

   -13.2383 -13.2011  -2.6442  -2.6333  -1.2998  -0.8230  -0.2731  -0.2682
     9.9680  11.9199  12.0292  12.7668

     occupation numbers 
     1.0000   1.0000   1.0000   1.0000   1.0000   1.0000   1.0000   1.0000
    -0.0000  -0.0000  -0.0000  -0.0000

          k =-0.2500-0.1443-0.0741 (  1268 PWs)   bands (ev):

[...]
     9.1621   9.2639  12.3006  14.1627

     occupation numbers 
     1.0000   1.0000   1.0000   1.0000   1.0000   1.0000   1.0000   1.0000
    -0.0000  -0.0000  -0.0000  -0.0000

          k =-0.2500-0.3368-0.1112 (  1274 PWs)   bands (ev):

   -11.6447 -11.6314  -4.7016  -4.6969  -2.6806  -2.6775   0.6504   0.8225
     9.1838   9.2392  12.6613  13.6470

     occupation numbers 
     1.0000   1.0000   1.0000   1.0000   1.0000   1.0000   1.0000   1.0000
    -0.0000  -0.0000  -0.0000  -0.0000

          k = 0.4167-0.0481-0.1112 (  1274 PWs)   bands (ev):

   -11.6446 -11.6313  -4.7008  -4.6960  -2.6816  -2.6785   0.6501   0.8222
     9.1847   9.2401  12.6611  13.6466

     occupation numbers 
     1.0000   1.0000   1.0000   1.0000   1.0000   1.0000   1.0000   1.0000
    -0.0000  -0.0000  -0.0000  -0.0000

          k =-0.2500-0.3368 0.1483 (  1274 PWs)   bands (ev):

   -11.6380 -11.6380  -4.6992  -4.6992  -2.6790  -2.6790   0.7351   0.7351
     9.2111   9.2111  13.1245  13.1245

     occupation numbers 
     1.0000   1.0000   1.0000   1.0000   1.0000   1.0000   1.0000   1.0000
    -0.0000  -0.0000  -0.0000  -0.0000

          k = 0.4167-0.0481 0.1483 (  1274 PWs)   bands (ev):

   -11.6380 -11.6380  -4.6984  -4.6984  -2.6800  -2.6800   0.7349   0.7349
     9.2120   9.2120  13.1243  13.1243

     occupation numbers 
     1.0000   1.0000   1.0000   1.0000   1.0000   1.0000   1.0000   1.0000
    -0.0000  -0.0000  -0.0000  -0.0000

          k =-0.3333-0.3849 0.0000 (  1261 PWs)   bands (ev):

   -10.2839 -10.2540  -6.6097  -6.5910  -3.2593  -3.2489   1.9801   2.3392
     7.2188   7.4128  13.8412  14.7161

     occupation numbers 
     1.0000   1.0000   1.0000   1.0000   1.0000   1.0000   1.0000   1.0000
    -0.0000  -0.0000  -0.0000  -0.0000

          k = 0.5000-0.0962 0.0000 (  1261 PWs)   bands (ev):

   -10.2839 -10.2539  -6.6094  -6.5908  -3.2596  -3.2492   1.9798   2.3389
     7.2195   7.4135  13.8411  14.7158

     occupation numbers 
     1.0000   1.0000   1.0000   1.0000   1.0000   1.0000   1.0000   1.0000
    -0.0000  -0.0000  -0.0000  -0.0000

          k =-0.3333-0.3849-0.0371 (  1268 PWs)   bands (ev):

   -10.2829 -10.2551  -6.6090  -6.5917  -3.2590  -3.2493   1.9932   2.3246
     7.2253   7.4046  13.9043  14.7181

     occupation numbers 
     1.0000   1.0000   1.0000   1.0000   1.0000   1.0000   1.0000   1.0000
    -0.0000  -0.0000  -0.0000  -0.0000

          k = 0.5000-0.0962-0.0371 (  1268 PWs)   bands (ev):

   -10.2828 -10.2551  -6.6087  -6.5915  -3.2593  -3.2496   1.9929   2.3243
     7.2259   7.4053  13.9042  14.7178

     occupation numbers 
     1.0000   1.0000   1.0000   1.0000   1.0000   1.0000   1.0000   1.0000
    -0.0000  -0.0000  -0.0000  -0.0000

          k =-0.3333-0.3849-0.0741 (  1267 PWs)   bands (ev):

   -10.2796 -10.2584  -6.6070  -6.5938  -3.2578  -3.2506   2.0305   2.2841
     7.2444   7.3817  14.0853  14.7228

     occupation numbers 
     1.0000   1.0000   1.0000   1.0000   1.0000   1.0000   1.0000   1.0000
    -0.0000  -0.0000  -0.0000  -0.0000

          k = 0.5000-0.0962-0.0741 (  1267 PWs)   bands (ev):

   -10.2796 -10.2583  -6.6067  -6.5935  -3.2582  -3.2509   2.0302   2.2838
     7.2450   7.3824  14.0851  14.7224

     occupation numbers 
     1.0000   1.0000   1.0000   1.0000   1.0000   1.0000   1.0000   1.0000
    -0.0000  -0.0000  -0.0000  -0.0000

          k =-0.3333-0.3849-0.1112 (  1272 PWs)   bands (ev):

   -10.2748 -10.2633  -6.6040  -6.5968  -3.2562  -3.2523   2.0871   2.2242
     7.2740   7.3482  14.3549  14.7173

     occupation numbers 
     1.0000   1.0000   1.0000   1.0000   1.0000   1.0000   1.0000   1.0000
    -0.0000  -0.0000  -0.0000  -0.0000

          k = 0.5000-0.0962-0.1112 (  1272 PWs)   bands (ev):

   -10.2748 -10.2632  -6.6037  -6.5965  -3.2565  -3.2526   2.0868   2.2239
     7.2746   7.3488  14.3545  14.7167

     occupation numbers 
     1.0000   1.0000   1.0000   1.0000   1.0000   1.0000   1.0000   1.0000
    -0.0000  -0.0000  -0.0000  -0.0000

          k =-0.3333-0.3849 0.1483 (  1274 PWs)   bands (ev):

   -10.2691 -10.2691  -6.6003  -6.6003  -3.2543  -3.2543   2.1551   2.1551
     7.3102   7.3102  14.6255  14.6256

     occupation numbers 
     1.0000   1.0000   1.0000   1.0000   1.0000   1.0000   1.0000   1.0000
    -0.0000  -0.0000  -0.0000  -0.0000

          k = 0.5000-0.0962 0.1483 (  1274 PWs)   bands (ev):

   -10.2690 -10.2690  -6.6001  -6.6001  -3.2546  -3.2546   2.1548   2.1548
     7.3108   7.3108  14.6247  14.6247

     occupation numbers 
     1.0000   1.0000   1.0000   1.0000   1.0000   1.0000   1.0000   1.0000
    -0.0000  -0.0000  -0.0000  -0.0000

          k =-0.4167-0.4330 0.0000 (  1260 PWs)   bands (ev):

    -9.0522  -9.0381  -8.0290  -8.0185  -3.4444  -3.4333   2.9544   3.1239
     6.1970   6.3280  14.6166  14.7562

     occupation numbers 
     1.0000   1.0000   1.0000   1.0000   1.0000   1.0000   1.0000   1.0000
    -0.0000  -0.0000  -0.0000  -0.0000

          k =-0.4167-0.4330-0.0371 (  1256 PWs)   bands (ev):

    -9.0516  -9.0386  -8.0286  -8.0189  -3.4439  -3.4335   2.9615   3.1180
     6.1998   6.3212  14.6214  14.7501

     occupation numbers 
     1.0000   1.0000   1.0000   1.0000   1.0000   1.0000   1.0000   1.0000
    -0.0000  -0.0000  -0.0000  -0.0000

          k =-0.4167-0.4330-0.0741 (  1258 PWs)   bands (ev):

    -9.0500  -9.0400  -8.0275  -8.0201  -3.4428  -3.4348   2.9810   3.1010
     6.2093   6.3023  14.6348  14.7328

     occupation numbers 
     1.0000   1.0000   1.0000   1.0000   1.0000   1.0000   1.0000   1.0000
    -0.0000  -0.0000  -0.0000  -0.0000

          k =-0.4167-0.4330-0.1112 (  1265 PWs)   bands (ev):

    -9.0477  -9.0423  -8.0259  -8.0219  -3.4411  -3.4367   3.0096   3.0745
     6.2258   6.2762  14.6552  14.7081

     occupation numbers 
     1.0000   1.0000   1.0000   1.0000   1.0000   1.0000   1.0000   1.0000
    -0.0000  -0.0000  -0.0000  -0.0000

          k =-0.4167-0.4330 0.1483 (  1260 PWs)   bands (ev):

    -9.0450  -9.0450  -8.0239  -8.0239  -3.4388  -3.4388   3.0426   3.0426
     6.2490   6.2490  14.6809  14.6809

     occupation numbers 
     1.0000   1.0000   1.0000   1.0000   1.0000   1.0000   1.0000   1.0000
    -0.0000  -0.0000  -0.0000  -0.0000

          k = 0.5000-0.0000 0.0000 (  1267 PWs)   bands (ev):

   -10.4310 -10.4002  -5.7371  -5.7280  -4.1575  -4.1505   1.8836   2.2713
     7.5387   7.6750  13.6414  15.3840

     occupation numbers 
     1.0000   1.0000   1.0000   1.0000   1.0000   1.0000   1.0000   1.0000
    -0.0000  -0.0000  -0.0000  -0.0000

          k = 0.5000-0.0000-0.0371 (  1266 PWs)   bands (ev):

   -10.4299 -10.4014  -5.7367  -5.7283  -4.1572  -4.1508   1.8976   2.2556
     7.5437   7.6697  13.7006  15.3018

     occupation numbers 
     1.0000   1.0000   1.0000   1.0000   1.0000   1.0000   1.0000   1.0000
    -0.0000  -0.0000  -0.0000  -0.0000

          k = 0.5000-0.0000-0.0741 (  1273 PWs)   bands (ev):

   -10.4267 -10.4049  -5.7358  -5.7293  -4.1565  -4.1515   1.9374   2.2110
     7.5583   7.6548  13.8710  15.0828

     occupation numbers 
     1.0000   1.0000   1.0000   1.0000   1.0000   1.0000   1.0000   1.0000
    -0.0000  -0.0000  -0.0000  -0.0000

          k = 0.5000-0.0000-0.1112 (  1269 PWs)   bands (ev):

   -10.4217 -10.4099  -5.7343  -5.7307  -4.1552  -4.1526   1.9980   2.1461
     7.5805   7.6324  14.1314  14.7812

     occupation numbers 
     1.0000   1.0000   1.0000   1.0000   1.0000   1.0000   1.0000   1.0000
    -0.0000  -0.0000  -0.0000  -0.0000

          k = 0.5000-0.0000 0.1483 (  1268 PWs)   bands (ev):

   -10.4158 -10.4158  -5.7325  -5.7325  -4.1539  -4.1539   2.0712   2.0712
     7.6064   7.6064  14.4486  14.4486

     occupation numbers 
     1.0000   1.0000   1.0000   1.0000   1.0000   1.0000   1.0000   1.0000
    -0.0000  -0.0000  -0.0000  -0.0000

          k =-0.3333-0.4811 0.0000 (  1255 PWs)   bands (ev):

    -9.0137  -8.9895  -7.1542  -7.1387  -4.8640  -4.8525   3.3192   3.5835
     6.0320   6.1622  15.5767  15.6366

     occupation numbers 
     1.0000   1.0000   1.0000   1.0000   1.0000   1.0000   1.0000   1.0001
    -0.0001  -0.0000  -0.0000  -0.0000

          k = 0.5833-0.0481 0.0000 (  1255 PWs)   bands (ev):

    -9.0137  -8.9896  -7.1537  -7.1382  -4.8645  -4.8530   3.3186   3.5830
     6.0327   6.1631  15.5766  15.6359

     occupation numbers 
     1.0000   1.0000   1.0000   1.0000   1.0000   1.0000   1.0000   1.0001
    -0.0001  -0.0000  -0.0000  -0.0000

          k =-0.3333-0.4811-0.0371 (  1251 PWs)   bands (ev):

    -9.0127  -8.9904  -7.1536  -7.1392  -4.8636  -4.8530   3.3292   3.5735
     6.0365   6.1568  15.5087  15.5981

     occupation numbers 
     1.0000   1.0000   1.0000   1.0000   1.0000   1.0000   1.0000   1.0001
    -0.0001  -0.0000  -0.0000  -0.0000

          k = 0.5833-0.0481-0.0371 (  1251 PWs)   bands (ev):

    -9.0128  -8.9905  -7.1531  -7.1387  -4.8640  -4.8534   3.3287   3.5729
     6.0372   6.1577  15.5086  15.5974

     occupation numbers 
     1.0000   1.0000   1.0000   1.0000   1.0000   1.0000   1.0000   1.0001
    -0.0001  -0.0000  -0.0000  -0.0000

          k =-0.3333-0.4811-0.0741 (  1253 PWs)   bands (ev):

    -9.0102  -8.9930  -7.1520  -7.1409  -4.8623  -4.8543   3.3578   3.5445
     6.0491   6.1413  15.4058  15.4982

     occupation numbers 
     1.0000   1.0000   1.0000   1.0000   1.0000   1.0000   1.0000   1.0001
    -0.0001  -0.0000  -0.0000  -0.0000

          k = 0.5833-0.0481-0.0741 (  1253 PWs)   bands (ev):

    -9.0103  -8.9931  -7.1515  -7.1404  -4.8627  -4.8548   3.3572   3.5440
     6.0499   6.1422  15.4056  15.4976

     occupation numbers 
     1.0000   1.0000   1.0000   1.0000   1.0000   1.0000   1.0000   1.0001
    -0.0001  -0.0000  -0.0000  -0.0000

          k =-0.3333-0.4811-0.1112 (  1261 PWs)   bands (ev):

    -9.0063  -8.9970  -7.1495  -7.1435  -4.8605  -4.8562   3.4002   3.5013
     6.0687   6.1186  15.3434  15.3989

     occupation numbers 
     1.0000   1.0000   1.0000   1.0000   1.0000   1.0000   1.0000   1.0000
    -0.0001  -0.0000  -0.0000  -0.0000

          k = 0.5833-0.0481-0.1112 (  1261 PWs)   bands (ev):

    -9.0063  -8.9971  -7.1490  -7.1430  -4.8610  -4.8567   3.3996   3.5007
     6.0695   6.1194  15.3432  15.3983

     occupation numbers 
     1.0000   1.0000   1.0000   1.0000   1.0000   1.0000   1.0000   1.0000
    -0.0001  -0.0000  -0.0000  -0.0000

          k =-0.3333-0.4811 0.1483 (  1262 PWs)   bands (ev):

    -9.0016  -9.0016  -7.1465  -7.1465  -4.8583  -4.8583   3.4505   3.4505
     6.0931   6.0931  15.3413  15.3413

     occupation numbers 
     1.0000   1.0000   1.0000   1.0000   1.0000   1.0000   1.0000   1.0000
    -0.0000  -0.0000  -0.0000  -0.0000

          k = 0.5833-0.0481 0.1483 (  1262 PWs)   bands (ev):

    -9.0017  -9.0017  -7.1460  -7.1460  -4.8588  -4.8588   3.4500   3.4500
     6.0939   6.0939  15.3409  15.3409

     occupation numbers 
     1.0000   1.0000   1.0000   1.0000   1.0000   1.0000   1.0000   1.0000
    -0.0000  -0.0000  -0.0000  -0.0000

     the Fermi energy is     4.8011 ev

!    total energy              =     -49.71273136 Ry
     estimated scf accuracy    <          2.6E-10 Ry
     smearing contrib. (-TS)   =      -0.00041920 Ry
     internal energy E=F+TS    =     -49.71231217 Ry

     The total energy is F=E-TS. E is the sum of the following terms:
     one-electron contribution =     -29.91114828 Ry
     hartree contribution      =      21.73906580 Ry
     xc contribution           =     -18.53692716 Ry
     ewald contribution        =     -23.00330253 Ry

     convergence has been achieved in   7 iterations

     Forces acting on atoms (cartesian axes, Ry/au):

     atom    1 type  1   force =    -0.00000000   -0.00027622    0.00000000
     atom    2 type  1   force =     0.00000000    0.00027622    0.00000000
     atom    3 type  1   force =    -0.00000000    0.00027461    0.00000000
     atom    4 type  1   force =     0.00000000   -0.00027461    0.00000000
     The non-local contrib.  to forces
     atom    1 type  1   force =     0.00000000   -0.00025781    0.00000000
     atom    2 type  1   force =    -0.00000000    0.00025781    0.00000000
     atom    3 type  1   force =     0.00000000    0.00025704    0.00000000
     atom    4 type  1   force =     0.00000000   -0.00025704    0.00000000
     The ionic contribution  to forces
     atom    1 type  1   force =    -0.00000000   -0.00098176   -0.00000000
     atom    2 type  1   force =    -0.00000000    0.00098176    0.00000000
     atom    3 type  1   force =    -0.00000000    0.00098202   -0.00000000
     atom    4 type  1   force =     0.00000000   -0.00098202    0.00000000
     The local contribution  to forces
     atom    1 type  1   force =     0.00000000    0.00095506    0.00000000
     atom    2 type  1   force =    -0.00000000   -0.00095506    0.00000000
     atom    3 type  1   force =    -0.00000000   -0.00095436    0.00000000
     atom    4 type  1   force =    -0.00000000    0.00095436    0.00000000
     The core correction contribution to forces
     atom    1 type  1   force =     0.00000000    0.00000831   -0.00000000
     atom    2 type  1   force =     0.00000000   -0.00000831   -0.00000000
     atom    3 type  1   force =    -0.00000000   -0.00001008   -0.00000000
     atom    4 type  1   force =     0.00000000    0.00001008   -0.00000000
     The Hubbard contrib.    to forces
     atom    1 type  1   force =     0.00000000    0.00000000    0.00000000
     atom    2 type  1   force =     0.00000000    0.00000000    0.00000000
     atom    3 type  1   force =     0.00000000    0.00000000    0.00000000
     atom    4 type  1   force =     0.00000000    0.00000000    0.00000000
     The SCF correction term to forces
     atom    1 type  1   force =     0.00000000   -0.00000002    0.00000000
     atom    2 type  1   force =    -0.00000000    0.00000002   -0.00000000
     atom    3 type  1   force =    -0.00000000   -0.00000001   -0.00000000
     atom    4 type  1   force =     0.00000000    0.00000001   -0.00000000

     Total force =     0.000551     Total SCF correction =     0.000000


     Computing stress (Cartesian axis) and pressure

          total   stress  (Ry/bohr**3)                   (kbar)     P=      -17.97
  -0.00016307   0.00000000   0.00000000          -23.99        0.00        0.00
   0.00000000  -0.00016198   0.00000000            0.00      -23.83        0.00
   0.00000000   0.00000000  -0.00004140            0.00        0.00       -6.09

     kinetic stress (kbar)   9262.49      0.00      0.00
                                0.00   9261.75     -0.00
                                0.00     -0.00  10523.49

     local   stress (kbar) -26775.40     -0.00     -0.00
                               -0.00 -26779.82      0.00
                               -0.00      0.00  27089.46

     nonloc. stress (kbar)   1801.97     -0.00      0.00
                               -0.00   1802.12      0.00
                                0.00      0.00   1656.35

     hartree stress (kbar)   9939.17     -0.00      0.00
                               -0.00   9939.80      0.00
                                0.00      0.00  -9111.78

     exc-cor stress (kbar)   -165.03      0.00      0.00
                                0.00   -165.00      0.00
                                0.00      0.00   -269.67

     corecor stress (kbar)  -2236.04     -0.00     -0.00
                               -0.00  -2236.06     -0.00
                               -0.00     -0.00  -2198.34

     ewald   stress (kbar)   8148.85     -0.00     -0.00
                               -0.00   8153.39      0.00
                               -0.00      0.00 -27695.59

     hubbard stress (kbar)      0.00      0.00      0.00
                                0.00      0.00      0.00
                                0.00      0.00      0.00

     DFT-D   stress (kbar)      0.00      0.00      0.00
                                0.00      0.00      0.00
                                0.00      0.00      0.00

     XDM     stress (kbar)      0.00      0.00      0.00
                                0.00      0.00      0.00
                                0.00      0.00      0.00

     dft-nl  stress (kbar)      0.00      0.00      0.00
                                0.00      0.00      0.00
                                0.00      0.00      0.00

     TS-vdW  stress (kbar)      0.00      0.00      0.00
                                0.00      0.00      0.00
                                0.00      0.00      0.00



     Writing output data file ./tmp/C.save/

     init_run     :      5.53s CPU      5.72s WALL (       1 calls)
     electrons    :     75.69s CPU     77.81s WALL (       1 calls)
     forces       :      1.44s CPU      1.48s WALL (       1 calls)
     stress       :      5.33s CPU      5.45s WALL (       1 calls)

     Called by init_run:
     wfcinit      :      4.60s CPU      4.74s WALL (       1 calls)
     wfcinit:atom :      0.14s CPU      0.14s WALL (     215 calls)
     wfcinit:wfcr :      3.61s CPU      3.73s WALL (     215 calls)
     potinit      :      0.20s CPU      0.21s WALL (       1 calls)
     hinit0       :      0.59s CPU      0.59s WALL (       1 calls)

     Called by electrons:
     c_bands      :     62.62s CPU     64.40s WALL (       7 calls)
     sum_band     :     11.89s CPU     12.22s WALL (       7 calls)
     v_of_rho     :      0.91s CPU      0.92s WALL (       8 calls)
     v_h          :      0.04s CPU      0.04s WALL (       8 calls)
     v_xc         :      1.09s CPU      1.10s WALL (      10 calls)
     newd         :      0.29s CPU      0.31s WALL (       8 calls)
     mix_rho      :      0.06s CPU      0.06s WALL (       7 calls)

     Called by c_bands:
     init_us_2    :      2.84s CPU      2.94s WALL (    3655 calls)
     cegterg      :     58.94s CPU     60.60s WALL (    1505 calls)

     Called by sum_band:
     sum_band:wei :      0.07s CPU      0.07s WALL (       7 calls)
     sum_band:loo :     11.30s CPU     11.61s WALL (       7 calls)
     sum_band:buf :      0.11s CPU      0.12s WALL (    1505 calls)
     sum_band:ini :      1.21s CPU      1.25s WALL (    1505 calls)
     sum_band:cal :      0.96s CPU      0.97s WALL (    1505 calls)
     sum_band:bec :      0.05s CPU      0.05s WALL (    1505 calls)
     addusdens    :      0.27s CPU      0.30s WALL (       7 calls)
     addusd:skk   :      0.01s CPU      0.01s WALL (       7 calls)
     addusd:dgemm :      0.06s CPU      0.07s WALL (       7 calls)
     addusd:qvan2 :      0.12s CPU      0.12s WALL (       7 calls)

     Called by *egterg:
     cdiaghg      :      2.56s CPU      2.66s WALL (    6357 calls)
     cegterg:over :      2.62s CPU      2.73s WALL (    4852 calls)
     cegterg:upda :      1.76s CPU      1.82s WALL (    4852 calls)
     cegterg:last :      2.84s CPU      2.92s WALL (    3215 calls)
     h_psi        :     47.66s CPU     49.02s WALL (    6572 calls)
     s_psi        :      2.50s CPU      2.58s WALL (    6572 calls)
     g_psi        :      0.63s CPU      0.65s WALL (    4852 calls)

     Called by h_psi:
     h_psi:calbec :      2.92s CPU      3.01s WALL (    6572 calls)
     vloc_psi     :     41.38s CPU     42.56s WALL (    6572 calls)
     add_vuspsi   :      2.74s CPU      2.82s WALL (    6572 calls)

     General routines
     calbec       :      4.43s CPU      4.57s WALL (    9152 calls)
     fft          :      0.52s CPU      0.53s WALL (     127 calls)
     ffts         :      0.00s CPU      0.00s WALL (      15 calls)
     fftw         :     39.58s CPU     40.80s WALL (  121374 calls)
     interpolate  :      0.04s CPU      0.04s WALL (       8 calls)

     Parallel routines

     PWSCF        :   1m28.61s CPU   1m31.39s WALL


   This run was terminated on:  11:37:25  23May2022            

=------------------------------------------------------------------------------=
   JOB DONE.
=------------------------------------------------------------------------------=
